/home/timkrog/spindecoh/qubcand/geomopt/lit_structures/Cu_mid_master/two/single_point/two/DFT/M06L/tighterscf/equil_geom
geom.inp
start.gbw
start.xyz
21122

                                 *****************
                                 * O   R   C   A *
                                 *****************

                                            #,                                       
                                            ###                                      
                                            ####                                     
                                            #####                                    
                                            ######                                   
                                           ########,                                 
                                     ,,################,,,,,                         
                               ,,#################################,,                 
                          ,,##########################################,,             
                       ,#########################################, ''#####,          
                    ,#############################################,,   '####,        
                  ,##################################################,,,,####,       
                ,###########''''           ''''###############################       
              ,#####''   ,,,,##########,,,,          '''####'''          '####       
            ,##' ,,,,###########################,,,                        '##       
           ' ,,###''''                  '''############,,,                           
         ,,##''                                '''############,,,,        ,,,,,,###''
      ,#''                                            '''#######################'''  
     '                                                          ''''####''''         
             ,#######,   #######,   ,#######,      ##                                
            ,#'     '#,  ##    ##  ,#'     '#,    #''#        ######   ,####,        
            ##       ##  ##   ,#'  ##            #'  '#       #        #'  '#        
            ##       ##  #######   ##           ,######,      #####,   #    #        
            '#,     ,#'  ##    ##  '#,     ,#' ,#      #,         ##   #,  ,#        
             '#######'   ##     ##  '#######'  #'      '#     #####' # '####'        



                  #######################################################
                  #                        -***-                        #
                  #          Department of theory and spectroscopy      #
                  #    Directorship and core code : Frank Neese         #
                  #        Max Planck Institute fuer Kohlenforschung    #
                  #                Kaiser Wilhelm Platz 1               #
                  #                 D-45470 Muelheim/Ruhr               #
                  #                      Germany                        #
                  #                                                     #
                  #                  All rights reserved                #
                  #                        -***-                        #
                  #######################################################


                         Program Version 5.0.4 -  RELEASE  -


 With contributions from (in alphabetic order):
   Daniel Aravena         : Magnetic Suceptibility
   Michael Atanasov       : Ab Initio Ligand Field Theory (pilot matlab implementation)
   Alexander A. Auer      : GIAO ZORA, VPT2 properties, NMR spectrum
   Ute Becker             : Parallelization
   Giovanni Bistoni       : ED, misc. LED, open-shell LED, HFLD
   Martin Brehm           : Molecular dynamics
   Dmytro Bykov           : SCF Hessian
   Vijay G. Chilkuri      : MRCI spin determinant printing, contributions to CSF-ICE
   Dipayan Datta          : RHF DLPNO-CCSD density
   Achintya Kumar Dutta   : EOM-CC, STEOM-CC
   Dmitry Ganyushin       : Spin-Orbit,Spin-Spin,Magnetic field MRCI
   Miquel Garcia          : C-PCM and meta-GGA Hessian, CC/C-PCM, Gaussian charge scheme
   Yang Guo               : DLPNO-NEVPT2, F12-NEVPT2, CIM, IAO-localization
   Andreas Hansen         : Spin unrestricted coupled pair/coupled cluster methods
   Benjamin Helmich-Paris : MC-RPA, TRAH-SCF, COSX integrals
   Lee Huntington         : MR-EOM, pCC
   Robert Izsak           : Overlap fitted RIJCOSX, COSX-SCS-MP3, EOM
   Marcus Kettner         : VPT2
   Christian Kollmar      : KDIIS, OOCD, Brueckner-CCSD(T), CCSD density, CASPT2, CASPT2-K
   Simone Kossmann        : Meta GGA functionals, TD-DFT gradient, OOMP2, MP2 Hessian
   Martin Krupicka        : Initial AUTO-CI
   Lucas Lang             : DCDCAS
   Marvin Lechner         : AUTO-CI (C++ implementation), FIC-MRCC
   Dagmar Lenk            : GEPOL surface, SMD
   Dimitrios Liakos       : Extrapolation schemes; Compound Job, initial MDCI parallelization
   Dimitrios Manganas     : Further ROCIS development; embedding schemes
   Dimitrios Pantazis     : SARC Basis sets
   Anastasios Papadopoulos: AUTO-CI, single reference methods and gradients
   Taras Petrenko         : DFT Hessian,TD-DFT gradient, ASA, ECA, R-Raman, ABS, FL, XAS/XES, NRVS
   Peter Pinski           : DLPNO-MP2, DLPNO-MP2 Gradient
   Christoph Reimann      : Effective Core Potentials
   Marius Retegan         : Local ZFS, SOC
   Christoph Riplinger    : Optimizer, TS searches, QM/MM, DLPNO-CCSD(T), (RO)-DLPNO pert. Triples
   Tobias Risthaus        : Range-separated hybrids, TD-DFT gradient, RPA, STAB
   Michael Roemelt        : Original ROCIS implementation
   Masaaki Saitow         : Open-shell DLPNO-CCSD energy and density
   Barbara Sandhoefer     : DKH picture change effects
   Avijit Sen             : IP-ROCIS
   Kantharuban Sivalingam : CASSCF convergence, NEVPT2, FIC-MRCI
   Bernardo de Souza      : ESD, SOC TD-DFT
   Georgi Stoychev        : AutoAux, RI-MP2 NMR, DLPNO-MP2 response
   Willem Van den Heuvel  : Paramagnetic NMR
   Boris Wezisla          : Elementary symmetry handling
   Frank Wennmohs         : Technical directorship


 We gratefully acknowledge several colleagues who have allowed us to
 interface, adapt or use parts of their codes:
   Stefan Grimme, W. Hujo, H. Kruse, P. Pracht,  : VdW corrections, initial TS optimization,
                  C. Bannwarth, S. Ehlert          DFT functionals, gCP, sTDA/sTD-DF
   Ed Valeev, F. Pavosevic, A. Kumar             : LibInt (2-el integral package), F12 methods
   Garnet Chan, S. Sharma, J. Yang, R. Olivares  : DMRG
   Ulf Ekstrom                                   : XCFun DFT Library
   Mihaly Kallay                                 : mrcc  (arbitrary order and MRCC methods)
   Jiri Pittner, Ondrej Demel                    : Mk-CCSD
   Frank Weinhold                                : gennbo (NPA and NBO analysis)
   Christopher J. Cramer and Donald G. Truhlar   : smd solvation model
   Lars Goerigk                                  : TD-DFT with DH, B97 family of functionals
   V. Asgeirsson, H. Jonsson                     : NEB implementation
   FAccTs GmbH                                   : IRC, NEB, NEB-TS, DLPNO-Multilevel, CI-OPT
                                                   MM, QMMM, 2- and 3-layer-ONIOM, Crystal-QMMM,
                                                   LR-CPCM, SF, NACMEs, symmetry and pop. for TD-DFT,
                                                   nearIR, NL-DFT gradient (VV10), updates on ESD,
                                                   ML-optimized integration grids
   S Lehtola, MJT Oliveira, MAL Marques          : LibXC Library
   Liviu Ungur et al                             : ANISO software


 Your calculation uses the libint2 library for the computation of 2-el integrals
 For citations please refer to: http://libint.valeyev.net

 Your ORCA version has been built with support for libXC version: 5.1.0
 For citations please refer to: https://tddft.org/programs/libxc/

 This ORCA versions uses:
   CBLAS   interface :  Fast vector & matrix operations
   LAPACKE interface :  Fast linear algebra routines
   SCALAPACK package :  Parallel linear algebra routines
   Shared memory     :  Shared parallel matrices
   BLAS/LAPACK       :  OpenBLAS 0.3.15  USE64BITINT DYNAMIC_ARCH NO_AFFINITY Prescott SINGLE_THREADED
        Core in use  :  Prescott
   Copyright (c) 2011-2014, The OpenBLAS Project




***************************************
The coordinates will be read from file: start.xyz
***************************************


XCFun DFT library Copyright 2009-2010 Ulf Ekstrom and contributors.
See http://admol.org/xcfun for more information.
This is free software; see the source code for copying conditions.
There is ABSOLUTELY NO WARRANTY; not even for MERCHANTABILITY or FITNESS FOR A PARTICULAR PURPOSE.
For details see the documentation.
Scientific users of this library should cite U. Ekstrom, L. Visscher, R. Bast, A. J. Thorvaldsen and K. Ruud;
J.Chem.Theor.Comp. 2010, DOI: 10.1021/ct100117s
XCFun Version 0.99 

================================================================================

----- Orbital basis set information -----
Your calculation utilizes the basis: ANO-RCC-DZP
   H, He:       P.-O. Widmark, P.-A. Malmqvist, and B. O. Roos, Theor. Chim. Acta 77, 291 (1990).
   s block:     B. O. Roos, V. Veryazov and P.-O. Widmark, Theor. Chem. Acc. 111, 345 (2004).
   p block:     B. O. Roos, R. Lindh, P.-A. Malmqvist, V. Veryazov, and P.-O. Widmark, J. Phys. Chem. A 108, 2851 (2004).
   d block:     B. O. Roos, R. Lindh, P.-A. Malmqvist, V. Veryazov, and P.-O. Widmark, J. Phys. Chem. A 109, 6575 (2005).
   actinides:   B. O. Roos, R. Lindh, P.-A. Malmqvist, V. Veryazov, and P.-O. Widmark, Chem. Phys. Letters 409, 295 (2005).
   lanthanides: B. O. Roos, R. Lindh, P.-A. Malmqvist, V. Veryazov, P.-O. Widmark and A. C. Borin, J. Phys. Chem. A 112, 11431 (2008).

The basis set includes element-specific modifications.

Your calculation utilizes the basis: ANO-RCC-TZP
   H, He:       P.-O. Widmark, P.-A. Malmqvist, and B. O. Roos, Theor. Chim. Acta 77, 291 (1990).
   s block:     B. O. Roos, V. Veryazov and P.-O. Widmark, Theor. Chem. Acc. 111, 345 (2004).
   p block:     B. O. Roos, R. Lindh, P.-A. Malmqvist, V. Veryazov, and P.-O. Widmark, J. Phys. Chem. A 108, 2851 (2004).
   d block:     B. O. Roos, R. Lindh, P.-A. Malmqvist, V. Veryazov, and P.-O. Widmark, J. Phys. Chem. A 109, 6575 (2005).
   actinides:   B. O. Roos, R. Lindh, P.-A. Malmqvist, V. Veryazov, and P.-O. Widmark, Chem. Phys. Letters 409, 295 (2005).
   lanthanides: B. O. Roos, R. Lindh, P.-A. Malmqvist, V. Veryazov, P.-O. Widmark and A. C. Borin, J. Phys. Chem. A 112, 11431 (2008).

----- AuxJ basis set information -----
Your calculation utilizes the AutoAux generation procedure.
  G. L. Stoychev, A. A. Auer, F. Neese, J. Chem. Theory Comput. 13, 554 (2017)

----- AuxC basis set information -----
Your calculation utilizes the AutoAux generation procedure.
  G. L. Stoychev, A. A. Auer, F. Neese, J. Chem. Theory Comput. 13, 554 (2017)

----- AuxJK basis set information -----
Your calculation utilizes the AutoAux generation procedure.
  G. L. Stoychev, A. A. Auer, F. Neese, J. Chem. Theory Comput. 13, 554 (2017)

================================================================================
                                        WARNINGS
                       Please study these warnings very carefully!
================================================================================


Removing linear dependencies from the Orbital basis set:
  S-ok PCD(Thresh=Auto)-ok done ( 0.406 sec)
  Dim=475 Nullspace=0 Removed 0 shells / 0 basis functions

Removing linear dependencies from the AuxJ basis set:
  V-ok PCD(Thresh=Auto)-ok done (18.446 sec)
  Dim=3632 Nullspace=0 Removed 0 shells / 0 basis functions

Removing linear dependencies from the AuxC basis set:
  V-ok PCD(Thresh=Auto)-ok done (18.433 sec)
  Dim=3632 Nullspace=0 Removed 0 shells / 0 basis functions

Removing linear dependencies from the AuxJK basis set:
  V-ok PCD(Thresh=Auto)-ok done (18.409 sec)
  Dim=3632 Nullspace=0 Removed 0 shells / 0 basis functions


WARNING: Found flag for RIJCOSX approximation but no HF exchange needed!
  ===> : RIJCOSX  will be disabled and Split-RI-J is turned on

WARNING: your system is open-shell and RHF/RKS was chosen
  ===> : WILL SWITCH to UHF/UKS


WARNING: Minnesota functionals are quite sensitive to the integration grid.
         see SE Wheeler, KN Houk, JCTC 2010, 6, 395,
             N Mardirossian, M Head-Gordon, JCTC 2016, 12, 4303.
         DEFGRID3 seems to be a minimum grid for reliable results with these functionals!
  ===> : Please increase the integration grid!


INFO   : the flag for use of the SHARK integral package has been found!

================================================================================
                                       INPUT FILE
================================================================================
NAME = geom.inp
|  1> ! RIJCOSX nofrozencore ReducedPop verytightscf
|  2> ! M06L ano-rcc-dzp autoaux 
|  3> ! moread
|  4> %moinp "start.gbw"
|  5> %maxcore 5000
|  6> 
|  7> %basis
|  8> PCDTrimBas overlap
|  9> PCDTrimAuxJ Coulomb
| 10> PCDTrimAuxJK Coulomb
| 11> PCDTrimAuxC Coulomb
| 12> PCDThresh -1
| 13> end
| 14> 
| 15> %basis
| 16> newgto Cu "ano-rcc-tzp" end
| 17> newgto S "ano-rcc-tzp" end
| 18> end
| 19> 
| 20> %pal
| 21> nprocs 64
| 22> end
| 23> 
| 24> % sym SymThresh 1e-2 end
| 25> * xyzfile -2 2 start.xyz
| 26> 
| 27> % eprnmr
| 28> gtensor true
| 29> Nuclei = all H {aiso,adip,aorb,fgrad,rho}
| 30> Nuclei = all Cu {aiso,adip,aorb,fgrad,rho}
| 31> end
| 32> 
| 33>                          ****END OF INPUT****
================================================================================

------------------------------------------------------------------------------
                            SYMMETRY HANDLING SETUP
------------------------------------------------------------------------------

------------------
SYMMETRY DETECTION
------------------
The point group will now be determined using a tolerance of 1.0000e-02.
Splitting atom subsets according to nuclear charge, mass and basis set.
Splitting atom subsets according to distance from the molecule's center.
Identifying relative distance patterns of the atoms.
Splitting atom subsets according to atoms' relative distance patterns.
Bring atoms of each subset into input order.
The molecule is planar.
The molecule has a center of inversion.
Analyzing the first atom subset for its symmetry.
The atoms in the selected subset form a 4-gon with alternating side lengths.
Testing point group D2h.
Success!
This point group has been found:    D2h
Largest non-degenerate subgroup:    D2h


Symmetry-perfected Cartesians (point group D2h):

Atom          Symmetry-perfected Cartesians (x, y, z; au)
  0       0.000000000000    0.000000000000    0.000000000000
  1       3.140594228102    3.053036651424   -0.000000000000
  2       5.955740433031    1.345007626760    0.000000000000
  3      -3.140594228102    3.053036651424    0.000000000000
  4      -5.955740433031    1.345007626760   -0.000000000000
  5       3.140594228102   -3.053036651424    0.000000000000
  6       5.955740433031   -1.345007626760   -0.000000000000
  7      -3.140594228102   -3.053036651424   -0.000000000000
  8      -5.955740433031   -1.345007626760    0.000000000000
  9      -8.287319389357   -2.604143136144    0.000000000000
 10      -8.287319389357    2.604143136144    0.000000000000
 11     -10.575262983641    1.316042458983    0.000000000000
 12      -8.267632273201    4.654866001687    0.000000000000
 13     -10.575262983641   -1.316042458983   -0.000000000000
 14      -8.267632273201   -4.654866001687   -0.000000000000
 15     -12.340290930366    2.363572251539    0.000000000000
 16     -12.340290930366   -2.363572251539    0.000000000000
 17       8.287319389357    2.604143136144    0.000000000000
 18       8.287319389357   -2.604143136144    0.000000000000
 19      10.575262983641    1.316042458983   -0.000000000000
 20       8.267632273201    4.654866001687   -0.000000000000
 21      10.575262983641   -1.316042458983    0.000000000000
 22       8.267632273201   -4.654866001687    0.000000000000
 23      12.340290930366    2.363572251539    0.000000000000
 24      12.340290930366   -2.363572251539    0.000000000000


-----------------------------------------------
SYMMETRY-PERFECTED CARTESIAN COORDINATES (A.U.)
-----------------------------------------------
Warning (ORCA_SYM): Coordinates were not cleaned so far!

------------------
SYMMETRY REDUCTION
------------------
ORCA supports only abelian point groups.
It is now checked, if the determined point group is supported:
Point Group ( D2h   ) is          ... supported

(Re)building abelian point group:
Creating Character Table          ... done
Making direct product table       ... done
Constructing symmetry operations  ... done
Creating atom transfer table      ... done
Creating asymmetric unit          ... done

----------------------
ASYMMETRIC UNIT IN D2h
----------------------
  #  AT     MASS              COORDS (A.U.)             BAS
   0 Cu  63.5500   0.00000000   0.00000000   0.00000000   0
   1 S   32.0600   3.14059423   3.05303665  -0.00000000   0
   2 C   12.0110   5.95574043   1.34500763   0.00000000   0
   9 C   12.0110  -8.28731939  -2.60414314   0.00000000   0
  11 C   12.0110 -10.57526298   1.31604246   0.00000000   0
  12 H    1.0080  -8.26763227   4.65486600   0.00000000   0
  15 H    1.0080 -12.34029093   2.36357225   0.00000000   0

----------------------
SYMMETRY ADAPTED BASIS
----------------------
The coefficients for the symmetry adapted linear combinations (SALCS)
of basis functions will now be computed:
Number of basis functions         ...   475
Preparing memory                  ... done
Constructing Gamma(red)           ... done
Reducing Gamma(red)               ... done
Constructing SALCs                ... done
Checking SALC integrity           ... nothing suspicious
Normalizing SALCs                 ... done

Storing the symmetry object:
Symmetry file                     ... geom.sym.tmp
Writing symmetry information      ... done

                       ****************************
                       * Single Point Calculation *
                       ****************************

---------------------------------
CARTESIAN COORDINATES (ANGSTROEM)
---------------------------------
  Cu     0.000000    0.000000    0.000000
  S      1.661931    1.615597   -0.000000
  C      3.151642    0.711747    0.000000
  S     -1.661931    1.615597    0.000000
  C     -3.151642    0.711747   -0.000000
  S      1.661931   -1.615597    0.000000
  C      3.151642   -0.711747   -0.000000
  S     -1.661931   -1.615597   -0.000000
  C     -3.151642   -0.711747    0.000000
  C     -4.385461   -1.378053    0.000000
  C     -4.385461    1.378053    0.000000
  C     -5.596188    0.696420    0.000000
  H     -4.375043    2.463249    0.000000
  C     -5.596188   -0.696420   -0.000000
  H     -4.375043   -2.463249   -0.000000
  H     -6.530201    1.250749    0.000000
  H     -6.530201   -1.250749    0.000000
  C      4.385461    1.378053    0.000000
  C      4.385461   -1.378053    0.000000
  C      5.596188    0.696420   -0.000000
  H      4.375043    2.463249   -0.000000
  C      5.596188   -0.696420    0.000000
  H      4.375043   -2.463249    0.000000
  H      6.530201    1.250749    0.000000
  H      6.530201   -1.250749    0.000000

----------------------------
CARTESIAN COORDINATES (A.U.)
----------------------------
  NO LB      ZA    FRAG     MASS         X           Y           Z
   0 Cu   29.0000    0    63.550    0.000000    0.000000    0.000000
   1 S    16.0000    0    32.060    3.140594    3.053037   -0.000000
   2 C     6.0000    0    12.011    5.955740    1.345008    0.000000
   3 S    16.0000    0    32.060   -3.140594    3.053037    0.000000
   4 C     6.0000    0    12.011   -5.955740    1.345008   -0.000000
   5 S    16.0000    0    32.060    3.140594   -3.053037    0.000000
   6 C     6.0000    0    12.011    5.955740   -1.345008   -0.000000
   7 S    16.0000    0    32.060   -3.140594   -3.053037   -0.000000
   8 C     6.0000    0    12.011   -5.955740   -1.345008    0.000000
   9 C     6.0000    0    12.011   -8.287319   -2.604143    0.000000
  10 C     6.0000    0    12.011   -8.287319    2.604143    0.000000
  11 C     6.0000    0    12.011  -10.575263    1.316042    0.000000
  12 H     1.0000    0     1.008   -8.267632    4.654866    0.000000
  13 C     6.0000    0    12.011  -10.575263   -1.316042   -0.000000
  14 H     1.0000    0     1.008   -8.267632   -4.654866   -0.000000
  15 H     1.0000    0     1.008  -12.340291    2.363572    0.000000
  16 H     1.0000    0     1.008  -12.340291   -2.363572    0.000000
  17 C     6.0000    0    12.011    8.287319    2.604143    0.000000
  18 C     6.0000    0    12.011    8.287319   -2.604143    0.000000
  19 C     6.0000    0    12.011   10.575263    1.316042   -0.000000
  20 H     1.0000    0     1.008    8.267632    4.654866   -0.000000
  21 C     6.0000    0    12.011   10.575263   -1.316042    0.000000
  22 H     1.0000    0     1.008    8.267632   -4.654866    0.000000
  23 H     1.0000    0     1.008   12.340291    2.363572    0.000000
  24 H     1.0000    0     1.008   12.340291   -2.363572    0.000000

--------------------------------
INTERNAL COORDINATES (ANGSTROEM)
--------------------------------
 Cu     0   0   0     0.000000000000     0.00000000     0.00000000
 S      1   0   0     2.317794065705     0.00000000     0.00000000
 C      2   1   0     1.742465032517   104.56354092     0.00000000
 S      1   2   3     2.317794034769    91.61984105   179.99999181
 C      4   1   2     1.742465046056   104.56354297   180.00000372
 S      1   2   3     2.317794048267    88.38016107     0.00000000
 C      3   2   1     1.423494782506   121.24637976     0.00000000
 S      1   2   3     2.317794059464   179.99999774     0.00000000
 C      5   4   1     1.423494741779   121.24638030     0.00000000
 C      9   5   4     1.402238052937   118.37062125   180.00000000
 C      5   4   1     1.402237971914   120.38299656   179.99999829
 C     11   5   4     1.389419186820   122.25009053   180.00000085
 H     11   5   4     1.085245785117   117.82058745     0.00000000
 C     10   9   5     1.389419189715   122.25008741     0.00000000
 H     10   9   5     1.085245798349   117.82059137   180.00000000
 H     12  11   5     1.086121556255   119.93192163   180.00000000
 H     14  10   9     1.086121518430   119.93192006   180.00000000
 C      3   2   1     1.402237943087   120.38299396   180.00000000
 C      7   3   2     1.402238002319   118.37062132   179.99999915
 C     18   3   2     1.389419099412   122.25008321   180.00000000
 H     18   3   2     1.085245821888   117.82060140     0.00000000
 C     19   7   3     1.389419142328   122.25008226     0.00000000
 H     19   7   3     1.085245820859   117.82060169   180.00000000
 H     20  18   3     1.086121515219   119.93191864   180.00000000
 H     22  19   7     1.086121542284   119.93192371   179.99999852

---------------------------
INTERNAL COORDINATES (A.U.)
---------------------------
 Cu     0   0   0     0.000000000000     0.00000000     0.00000000
 S      1   0   0     4.379996019010     0.00000000     0.00000000
 C      2   1   0     3.292781709390   104.56354092     0.00000000
 S      1   2   3     4.379995960550    91.61984105   179.99999181
 C      4   1   2     3.292781734976   104.56354297   180.00000372
 S      1   2   3     4.379995986058    88.38016107     0.00000000
 C      3   2   1     2.690015292002   121.24637976     0.00000000
 S      1   2   3     4.379996007216   179.99999774     0.00000000
 C      5   4   1     2.690015215040   121.24638030     0.00000000
 C      9   5   4     2.649845894614   118.37062125   180.00000000
 C      5   4   1     2.649845741502   120.38299656   179.99999829
 C     11   5   4     2.625621748305   122.25009053   180.00000085
 H     11   5   4     2.050817321863   117.82058745     0.00000000
 C     10   9   5     2.625621753775   122.25008741     0.00000000
 H     10   9   5     2.050817346869   117.82059137   180.00000000
 H     12  11   5     2.052472289471   119.93192163   180.00000000
 H     14  10   9     2.052472217991   119.93192006   180.00000000
 C      3   2   1     2.649845687028   120.38299396   180.00000000
 C      7   3   2     2.649845798959   118.37062132   179.99999915
 C     18   3   2     2.625621583128   122.25008321   180.00000000
 H     18   3   2     2.050817391351   117.82060140     0.00000000
 C     19   7   3     2.625621664227   122.25008226     0.00000000
 H     19   7   3     2.050817389405   117.82060169   180.00000000
 H     20  18   3     2.052472211923   119.93191864   180.00000000
 H     22  19   7     2.052472263069   119.93192371   179.99999852

---------------------
BASIS SET INFORMATION
---------------------
There are 4 groups of distinct atoms

 Group   1 Type Cu  : 126s75p30d12f4g contracted to 6s5p3d2f1g pattern {212121212121/1515151515/101010/66/4}
 Group   2 Type S   : 85s48p10d4f contracted to 5s4p2d1f pattern {1717171717/12121212/55/4}
 Group   3 Type C   : 42s18p4d contracted to 3s2p1d pattern {141414/99/4}
 Group   4 Type H   : 24s8p3d contracted to 3s2p1d pattern {888/44/3}

Atom   0Cu   basis set group =>   1
Atom   1S    basis set group =>   2
Atom   2C    basis set group =>   3
Atom   3S    basis set group =>   2
Atom   4C    basis set group =>   3
Atom   5S    basis set group =>   2
Atom   6C    basis set group =>   3
Atom   7S    basis set group =>   2
Atom   8C    basis set group =>   3
Atom   9C    basis set group =>   3
Atom  10C    basis set group =>   3
Atom  11C    basis set group =>   3
Atom  12H    basis set group =>   4
Atom  13C    basis set group =>   3
Atom  14H    basis set group =>   4
Atom  15H    basis set group =>   4
Atom  16H    basis set group =>   4
Atom  17C    basis set group =>   3
Atom  18C    basis set group =>   3
Atom  19C    basis set group =>   3
Atom  20H    basis set group =>   4
Atom  21C    basis set group =>   3
Atom  22H    basis set group =>   4
Atom  23H    basis set group =>   4
Atom  24H    basis set group =>   4
---------------------------------
AUXILIARY/J BASIS SET INFORMATION
---------------------------------
There are 4 groups of distinct atoms

 Group   1 Type Cu  : 23s20p18d17f13g5h contracted to 23s20p18d17f13g5h pattern {11111111111111111111111/11111111111111111111/111111111111111111/11111111111111111/1111111111111/11111}
 Group   2 Type S   : 20s17p16d7f contracted to 20s17p16d7f pattern {11111111111111111111/11111111111111111/1111111111111111/1111111}
 Group   3 Type C   : 17s14p13d4f contracted to 17s14p13d4f pattern {11111111111111111/11111111111111/1111111111111/1111}
 Group   4 Type H   : 12s5p4d3f contracted to 12s5p4d3f pattern {111111111111/11111/1111/111}

Atom   0Cu   basis set group =>   1
Atom   1S    basis set group =>   2
Atom   2C    basis set group =>   3
Atom   3S    basis set group =>   2
Atom   4C    basis set group =>   3
Atom   5S    basis set group =>   2
Atom   6C    basis set group =>   3
Atom   7S    basis set group =>   2
Atom   8C    basis set group =>   3
Atom   9C    basis set group =>   3
Atom  10C    basis set group =>   3
Atom  11C    basis set group =>   3
Atom  12H    basis set group =>   4
Atom  13C    basis set group =>   3
Atom  14H    basis set group =>   4
Atom  15H    basis set group =>   4
Atom  16H    basis set group =>   4
Atom  17C    basis set group =>   3
Atom  18C    basis set group =>   3
Atom  19C    basis set group =>   3
Atom  20H    basis set group =>   4
Atom  21C    basis set group =>   3
Atom  22H    basis set group =>   4
Atom  23H    basis set group =>   4
Atom  24H    basis set group =>   4
---------------------------------
AUXILIARY/C BASIS SET INFORMATION
---------------------------------
There are 4 groups of distinct atoms

 Group   1 Type Cu  : 23s20p18d17f13g5h contracted to 23s20p18d17f13g5h pattern {11111111111111111111111/11111111111111111111/111111111111111111/11111111111111111/1111111111111/11111}
 Group   2 Type S   : 20s17p16d7f contracted to 20s17p16d7f pattern {11111111111111111111/11111111111111111/1111111111111111/1111111}
 Group   3 Type C   : 17s14p13d4f contracted to 17s14p13d4f pattern {11111111111111111/11111111111111/1111111111111/1111}
 Group   4 Type H   : 12s5p4d3f contracted to 12s5p4d3f pattern {111111111111/11111/1111/111}

Atom   0Cu   basis set group =>   1
Atom   1S    basis set group =>   2
Atom   2C    basis set group =>   3
Atom   3S    basis set group =>   2
Atom   4C    basis set group =>   3
Atom   5S    basis set group =>   2
Atom   6C    basis set group =>   3
Atom   7S    basis set group =>   2
Atom   8C    basis set group =>   3
Atom   9C    basis set group =>   3
Atom  10C    basis set group =>   3
Atom  11C    basis set group =>   3
Atom  12H    basis set group =>   4
Atom  13C    basis set group =>   3
Atom  14H    basis set group =>   4
Atom  15H    basis set group =>   4
Atom  16H    basis set group =>   4
Atom  17C    basis set group =>   3
Atom  18C    basis set group =>   3
Atom  19C    basis set group =>   3
Atom  20H    basis set group =>   4
Atom  21C    basis set group =>   3
Atom  22H    basis set group =>   4
Atom  23H    basis set group =>   4
Atom  24H    basis set group =>   4
----------------------------------
AUXILIARY/JK BASIS SET INFORMATION
----------------------------------
There are 4 groups of distinct atoms

 Group   1 Type Cu  : 23s20p18d17f13g5h contracted to 23s20p18d17f13g5h pattern {11111111111111111111111/11111111111111111111/111111111111111111/11111111111111111/1111111111111/11111}
 Group   2 Type S   : 20s17p16d7f contracted to 20s17p16d7f pattern {11111111111111111111/11111111111111111/1111111111111111/1111111}
 Group   3 Type C   : 17s14p13d4f contracted to 17s14p13d4f pattern {11111111111111111/11111111111111/1111111111111/1111}
 Group   4 Type H   : 12s5p4d3f contracted to 12s5p4d3f pattern {111111111111/11111/1111/111}

Atom   0Cu   basis set group =>   1
Atom   1S    basis set group =>   2
Atom   2C    basis set group =>   3
Atom   3S    basis set group =>   2
Atom   4C    basis set group =>   3
Atom   5S    basis set group =>   2
Atom   6C    basis set group =>   3
Atom   7S    basis set group =>   2
Atom   8C    basis set group =>   3
Atom   9C    basis set group =>   3
Atom  10C    basis set group =>   3
Atom  11C    basis set group =>   3
Atom  12H    basis set group =>   4
Atom  13C    basis set group =>   3
Atom  14H    basis set group =>   4
Atom  15H    basis set group =>   4
Atom  16H    basis set group =>   4
Atom  17C    basis set group =>   3
Atom  18C    basis set group =>   3
Atom  19C    basis set group =>   3
Atom  20H    basis set group =>   4
Atom  21C    basis set group =>   3
Atom  22H    basis set group =>   4
Atom  23H    basis set group =>   4
Atom  24H    basis set group =>   4


           ************************************************************
           *        Program running with 64 parallel MPI-processes    *
           *              working on a common directory               *
           ************************************************************
------------------------------------------------------------------------------
                           ORCA GTO INTEGRAL CALCULATION
                           -- RI-GTO INTEGRALS CHOSEN --
------------------------------------------------------------------------------
------------------------------------------------------------------------------
                   ___                                                        
                  /   \      - P O W E R E D   B Y -                         
                 /     \                                                     
                 |  |  |   _    _      __       _____    __    __             
                 |  |  |  | |  | |    /  \     |  _  \  |  |  /  |          
                  \  \/   | |  | |   /    \    | | | |  |  | /  /          
                 / \  \   | |__| |  /  /\  \   | |_| |  |  |/  /          
                |  |  |   |  __  | /  /__\  \  |    /   |      \           
                |  |  |   | |  | | |   __   |  |    \   |  |\   \          
                \     /   | |  | | |  |  |  |  | |\  \  |  | \   \       
                 \___/    |_|  |_| |__|  |__|  |_| \__\ |__|  \__/        
                                                                              
                      - O R C A' S   B I G   F R I E N D -                    
                                      &                                       
                       - I N T E G R A L  F E E D E R -                       
                                                                              
 v1 FN, 2020, v2 2021                                                         
------------------------------------------------------------------------------


Reading SHARK input file geom.SHARKINP.tmp ... ok
----------------------
SHARK INTEGRAL PACKAGE
----------------------

Number of atoms                             ...     25
Number of basis functions                   ...    475
Number of shells                            ...    185
Maximum angular momentum                    ...      4
Integral batch strategy                     ... SHARK/LIBINT Hybrid
RI-J (if used) integral strategy            ... SPLIT-RIJ (Revised 2003 algorithm where possible)
Printlevel                                  ...      1
Contraction scheme used                     ... GENERAL contraction
Coulomb Range Separation                    ... NOT USED
Exchange Range Separation                   ... NOT USED
Finite Nucleus Model                        ... NOT USED
Auxiliary Coulomb fitting basis             ... AVAILABLE
   # of basis functions in Aux-J            ...   3632
   # of shells in Aux-J                     ...   1104
   Maximum angular momentum in Aux-J        ...      5
Auxiliary J/K fitting basis                 ... AVAILABLE
   # of basis functions in Aux-JK           ...   3632
   # of shells in Aux-JK                    ...   1104
   Maximum angular momentum in Aux-JK       ...      5
Auxiliary Correlation fitting basis         ... AVAILABLE
   # of basis functions in Aux-C            ...   3632
   # of shells in Aux-C                     ...   1104
   Maximum angular momentum in Aux-C        ...      5
Auxiliary 'external' fitting basis          ... NOT available
Integral threshold                          ...     1.000000e-12
Primitive cut-off                           ...     1.000000e-14
Primitive pair pre-selection threshold      ...     1.000000e-14

Calculating pre-screening integrals         ... done (  5.4 sec) Dimension = 185
Organizing shell pair data                  ... done (  0.9 sec)
Shell pair information
Total number of shell pairs                 ...     17205
Shell pairs after pre-screening             ...         0
Total number of primitive shell pairs       ...   1784626
Primitive shell pairs kept                  ...    124267

Calculating one electron integrals          ... done (  0.0 sec)
Calculating RI/J V-Matrix + Cholesky decomp.... done (  0.7 sec)
Calculating RI/JK V-Matrix + Cholesky decomp... done (  0.7 sec)
Calculating RI/C V-Matrix + Cholesky decomp.... done (  0.7 sec)
Calculating Nuclear repulsion               ... done (  0.0 sec) ENN=   2050.147334958267 Eh

SHARK setup successfully completed in   8.9 seconds

Maximum memory used throughout the entire GTOINT-calculation: 213.8 MB


           ************************************************************
           *        Program running with 64 parallel MPI-processes    *
           *              working on a common directory               *
           ************************************************************
-------------------------------------------------------------------------------
                                 ORCA SCF
-------------------------------------------------------------------------------

------------
SCF SETTINGS
------------
Hamiltonian:
 Density Functional     Method          .... DFT(GTOs)
 Exchange Functional    Exchange        .... M06L
 Correlation Functional Correlation     .... M06L
 Gradients option       PostSCFGGA      .... off
   Density functional embedding theory  .... OFF
 RI-approximation to the Coulomb term is turned on
   Number of AuxJ basis functions       .... 3632


General Settings:
 Integral files         IntName         .... geom
 Hartree-Fock type      HFTyp           .... UHF
 Total Charge           Charge          ....   -2
 Multiplicity           Mult            ....    2
 Number of Electrons    NEL             ....  175
 Basis Dimension        Dim             ....  475
 Nuclear Repulsion      ENuc            ....   2050.1473349583 Eh

 Symmetry handling      UseSym         .... ON
 Point group                           .... D2h
 Used point group                      .... D2h
 Number of irreps                      .... 8
   Irrep   Ag has   88 symmetry adapted basis functions (ofs=   0)
   Irrep  B1g has   78 symmetry adapted basis functions (ofs=  88)
   Irrep  B2g has   36 symmetry adapted basis functions (ofs= 166)
   Irrep  B3g has   36 symmetry adapted basis functions (ofs= 202)
   Irrep   Au has   33 symmetry adapted basis functions (ofs= 238)
   Irrep  B1u has   40 symmetry adapted basis functions (ofs= 271)
   Irrep  B2u has   82 symmetry adapted basis functions (ofs= 311)
   Irrep  B3u has   82 symmetry adapted basis functions (ofs= 393)

Convergence Acceleration:
 DIIS                   CNVDIIS         .... on
   Start iteration      DIISMaxIt       ....    12
   Startup error        DIISStart       ....  0.200000
   # of expansion vecs  DIISMaxEq       ....     5
   Bias factor          DIISBfac        ....   1.050
   Max. coefficient     DIISMaxC        ....  10.000
 Trust-Rad. Augm. Hess. CNVTRAH         .... auto
   Auto Start mean grad. ratio tolernc. ....  1.125000
   Auto Start start iteration           ....     1
   Auto Start num. interpolation iter.  ....    10
   Max. Number of Micro iterations      ....    16
   Max. Number of Macro iterations      .... Maxiter - #DIIS iter
   Number of Davidson start vectors     ....     2
   Converg. threshold I  (grad. norm)   ....   2.000e-06
   Converg. threshold II (energy diff.) ....   1.000e-09
   Grad. Scal. Fac. for Micro threshold ....   0.100
   Minimum threshold for Micro iter.    ....   0.010
   NR start threshold (gradient norm)   ....   0.001
   Initial trust radius                 ....   0.400
   Minimum AH scaling param. (alpha)    ....   1.000
   Maximum AH scaling param. (alpha)    .... 1000.000
   Orbital update algorithm             .... Taylor
   White noise on init. David. guess    .... on
   Maximum white noise                  ....   0.010
   Quad. conv. algorithm                .... NR
 SOSCF                  CNVSOSCF        .... off
 Level Shifting         CNVShift        .... on
   Level shift para.    LevelShift      ....    0.2500
   Turn off err/grad.   ShiftErr        ....    0.0010
 Zerner damping         CNVZerner       .... off
 Static damping         CNVDamp         .... on
   Fraction old density DampFac         ....    0.7000
   Max. Damping (<1)    DampMax         ....    0.9800
   Min. Damping (>=0)   DampMin         ....    0.0000
   Turn off err/grad.   DampErr         ....    0.1000
 Fernandez-Rico         CNVRico         .... off

SCF Procedure:
 Maximum # iterations   MaxIter         ....   125
 SCF integral mode      SCFMode         .... Direct
   Integral package                     .... SHARK and LIBINT hybrid scheme
 Reset frequency        DirectResetFreq ....    20
 Integral Threshold     Thresh          ....  1.000e-12 Eh
 Primitive CutOff       TCut            ....  1.000e-14 Eh

Convergence Tolerance:
 Convergence Check Mode ConvCheckMode   .... Total+1el-Energy
 Convergence forced     ConvForced      .... 0
 Energy Change          TolE            ....  1.000e-09 Eh
 1-El. energy change                    ....  1.000e-06 Eh
 DIIS Error             TolErr          ....  1.000e-08


Diagonalization of the overlap matrix:
Smallest eigenvalue                        ... 3.944e-04
Time for diagonalization                   ...    0.069 sec
Threshold for overlap eigenvalues          ... 1.000e-08
Number of eigenvalues below threshold      ... 0
Time for construction of square roots      ...    0.111 sec
Producing symmetrization matrix            ... done (   0.056 sec)
Total time needed                          ...    0.239 sec

---------------------
INITIAL GUESS: MOREAD
---------------------
Guess MOs are being read from file: start.gbw
Input Geometry matches current geometry (good)
Input basis set matches current basis set (good)
Warning: Geometry matches/Basis set matches and symmetry is to be used
         We proceed in good trust that the input orbitals and irreps are correct
MOs were renormalized
MOs were reorthogonalized (Cholesky)
Irrep occupations for operator 0
    Ag -   21
   B1g -   15
   B2g -    5
   B3g -    4
    Au -    3
   B1u -    6
   B2u -   16
   B3u -   18
Irrep occupations for operator 1
    Ag -   21
   B1g -   14
   B2g -    5
   B3g -    4
    Au -    3
   B1u -    6
   B2u -   16
   B3u -   18
                      ------------------
                      INITIAL GUESS DONE (   0.3 sec)
                      ------------------
-------------------
DFT GRID GENERATION
-------------------

General Integration Accuracy     IntAcc      ... 4.388
Radial Grid Type                 RadialGrid  ... OptM3 with GC (2021)
Angular Grid (max. ang.)         AngularGrid ... 4 (Lebedev-302)
Angular grid pruning method      GridPruning ... 4 (adaptive)
Weight generation scheme         WeightScheme... Becke
Basis function cutoff            BFCut       ... 1.0000e-12
Integration weight cutoff        WCut        ... 1.0000e-14
Angular grids for H and He will be reduced by one unit
Partially contracted basis set               ... off
Rotationally invariant grid construction     ... off

Total number of grid points                  ...   139370
Total number of batches                      ...     2189
Average number of points per batch           ...       63
Average number of grid points per atom       ...     5575
Time for grid setup =    0.779 sec

--------------
SCF ITERATIONS
--------------
ITER       Energy         Delta-E        Max-DP      RMS-DP      [F,P]     Damp
               ***  Starting incremental Fock matrix formation  ***
  0  -3686.9288566741   0.000000000000 0.00000023  0.00000000  0.0000003 0.7000
  1  -3686.9288566744  -0.000000000286 0.00000016  0.00000000  0.0000002 0.7000
                               ***Turning on DIIS***
  2  -3686.9288566741   0.000000000276 0.00000037  0.00000001  0.0000002 0.0000
  3  -3686.9288566744  -0.000000000210 0.00000078  0.00000000  0.0000001 0.0000
  4  -3686.9288566774  -0.000000003087 0.00000056  0.00000000  0.0000005 0.0000
  5  -3686.9288566778  -0.000000000375 0.00000003  0.00000000  0.0000001 0.0000
  6  -3686.9288566769   0.000000000890 0.00000004  0.00000000  0.0000002 0.0000
                 **** Energy Check signals convergence ****

               *****************************************************
               *                     SUCCESS                       *
               *           SCF CONVERGED AFTER   7 CYCLES          *
               *****************************************************


----------------
TOTAL SCF ENERGY
----------------

Total Energy       :        -3686.92885668 Eh         -100326.43469 eV

Components:
Nuclear Repulsion  :         2050.14733496 Eh           55787.34516 eV
Electronic Energy  :        -5737.07619164 Eh         -156113.77985 eV
One Electron Energy:        -9237.42131350 Eh         -251363.01299 eV
Two Electron Energy:         3500.34512186 Eh           95249.23314 eV

Virial components:
Potential Energy   :        -7494.95437773 Eh         -203948.07714 eV
Kinetic Energy     :         3808.02552105 Eh          103621.64245 eV
Virial Ratio       :            1.96819962


DFT components:
N(Alpha)           :       88.000026057609 electrons
N(Beta)            :       87.000028684730 electrons
N(Total)           :      175.000054742339 electrons
E(XC)              :     -239.640233981776 Eh       
DFET-embed. en.    :        0.000000000000 Eh       

---------------
SCF CONVERGENCE
---------------

  Last Energy change         ...    6.4119e-11  Tolerance :   1.0000e-09
  Last MAX-Density change    ...    1.3380e-09  Tolerance :   1.0000e-08
  Last RMS-Density change    ...    1.4762e-11  Tolerance :   1.0000e-09
  Last DIIS Error            ...    1.7638e-07  Tolerance :   1.0000e-08

             **** THE GBW FILE WAS UPDATED (geom.gbw) ****
             **** DENSITY geom.scfp WAS UPDATED ****
             **** ENERGY FILE WAS UPDATED (geom.en.tmp) ****
----------------------
UHF SPIN CONTAMINATION
----------------------

Warning: in a DFT calculation there is little theoretical justification to 
         calculate <S**2> as in Hartree-Fock theory. We will do it anyways
         but you should keep in mind that the values have only limited relevance

Expectation value of <S**2>     :     0.753094
Ideal value S*(S+1) for S=0.5   :     0.750000
Deviation                       :     0.003094

             **** THE GBW FILE WAS UPDATED (geom.gbw) ****
             **** DENSITY geom.scfp WAS UPDATED ****
----------------
ORBITAL ENERGIES
----------------
                 SPIN UP ORBITALS
  NO   OCC          E(Eh)            E(eV)    Irrep 
   0   1.0000    -318.181282     -8658.1529    1-Ag
   1   1.0000     -88.014175     -2394.9875    1-B3u
   2   1.0000     -88.014163     -2394.9871    1-B1g
   3   1.0000     -88.014159     -2394.9870    1-B2u
   4   1.0000     -88.014125     -2394.9861    2-Ag
   5   1.0000     -38.026503     -1034.7537    3-Ag
   6   1.0000     -33.529647      -912.3881    2-B2u
   7   1.0000     -33.528800      -912.3650    2-B3u
   8   1.0000     -33.514998      -911.9895    1-B1u
   9   1.0000      -9.832379      -267.5526    3-B3u
  10   1.0000      -9.832373      -267.5525    4-Ag
  11   1.0000      -9.832047      -267.5436    2-B1g
  12   1.0000      -9.832044      -267.5435    3-B2u
  13   1.0000      -9.823588      -267.3134    4-B3u
  14   1.0000      -9.823588      -267.3134    5-Ag
  15   1.0000      -9.823157      -267.3017    3-B1g
  16   1.0000      -9.823157      -267.3017    4-B2u
  17   1.0000      -9.816233      -267.1133    4-B1g
  18   1.0000      -9.816233      -267.1133    5-B2u
  19   1.0000      -9.816229      -267.1132    5-B3u
  20   1.0000      -9.816228      -267.1132    6-Ag
  21   1.0000      -7.582872      -206.3404    5-B1g
  22   1.0000      -7.582872      -206.3404    6-B2u
  23   1.0000      -7.582868      -206.3403    6-B3u
  24   1.0000      -7.582857      -206.3400    7-Ag
  25   1.0000      -5.506077      -149.8280    6-B1g
  26   1.0000      -5.506076      -149.8280    7-B2u
  27   1.0000      -5.506076      -149.8280    7-B3u
  28   1.0000      -5.506076      -149.8279    8-Ag
  29   1.0000      -5.500769      -149.6835    8-B2u
  30   1.0000      -5.500769      -149.6835    7-B1g
  31   1.0000      -5.500769      -149.6835    8-B3u
  32   1.0000      -5.500769      -149.6835    9-Ag
  33   1.0000      -5.498940      -149.6338    1-Au
  34   1.0000      -5.498940      -149.6338    1-B3g
  35   1.0000      -5.498940      -149.6338    1-B2g
  36   1.0000      -5.498940      -149.6338    2-B1u
  37   1.0000      -4.024116      -109.5018   10-Ag
  38   1.0000      -2.545566       -69.2684    9-B2u
  39   1.0000      -2.544030       -69.2266    9-B3u
  40   1.0000      -2.516564       -68.4792    3-B1u
  41   1.0000      -0.589342       -16.0368   11-Ag
  42   1.0000      -0.589225       -16.0336   10-B3u
  43   1.0000      -0.504496       -13.7280   12-Ag
  44   1.0000      -0.503403       -13.6983   11-B3u
  45   1.0000      -0.489908       -13.3311   10-B2u
  46   1.0000      -0.489660       -13.3243    8-B1g
  47   1.0000      -0.409612       -11.1461   11-B2u
  48   1.0000      -0.407031       -11.0759    9-B1g
  49   1.0000      -0.387762       -10.5515   13-Ag
  50   1.0000      -0.381177       -10.3723   12-B3u
  51   1.0000      -0.321924        -8.7600   14-Ag
  52   1.0000      -0.319266        -8.6877   13-B3u
  53   1.0000      -0.299932        -8.1616   12-B2u
  54   1.0000      -0.296446        -8.0667   10-B1g
  55   1.0000      -0.232922        -6.3381   15-Ag
  56   1.0000      -0.227660        -6.1949   14-B3u
  57   1.0000      -0.189907        -5.1676   16-Ag
  58   1.0000      -0.189042        -5.1441   15-B3u
  59   1.0000      -0.177416        -4.8277   13-B2u
  60   1.0000      -0.174474        -4.7477   11-B1g
  61   1.0000      -0.146565        -3.9882   14-B2u
  62   1.0000      -0.143582        -3.9071   12-B1g
  63   1.0000      -0.131020        -3.5652   17-Ag
  64   1.0000      -0.116871        -3.1802    4-B1u
  65   1.0000      -0.116757        -3.1771    2-B2g
  66   1.0000      -0.113560        -3.0901   16-B3u
  67   1.0000      -0.086541        -2.3549   18-Ag
  68   1.0000      -0.069474        -1.8905   15-B2u
  69   1.0000      -0.065244        -1.7754   13-B1g
  70   1.0000      -0.061971        -1.6863   17-B3u
  71   1.0000      -0.038753        -1.0545    3-B2g
  72   1.0000      -0.037231        -1.0131    5-B1u
  73   1.0000      -0.031187        -0.8486   14-B1g
  74   1.0000      -0.029038        -0.7902   19-Ag
  75   1.0000      -0.026190        -0.7127    2-B3g
  76   1.0000      -0.019243        -0.5236    2-Au
  77   1.0000      -0.002753        -0.0749    3-B3g
  78   1.0000      -0.000515        -0.0140   20-Ag
  79   1.0000       0.001479         0.0403    4-B2g
  80   1.0000       0.018575         0.5055   21-Ag
  81   1.0000       0.019174         0.5218   18-B3u
  82   1.0000       0.034860         0.9486   16-B2u
  83   1.0000       0.050311         1.3690    3-Au
  84   1.0000       0.052441         1.4270    4-B3g
  85   1.0000       0.062747         1.7074    6-B1u
  86   1.0000       0.087793         2.3890    5-B2g
  87   1.0000       0.105163         2.8616   15-B1g
  88   0.0000       0.181456         4.9377   22-Ag
  89   0.0000       0.181564         4.9406   19-B3u
  90   0.0000       0.196839         5.3563   16-B1g
  91   0.0000       0.197011         5.3609   17-B2u
  92   0.0000       0.201027         5.4702    7-B1u
  93   0.0000       0.204066         5.5529    6-B2g
  94   0.0000       0.207417         5.6441    5-B3g
  95   0.0000       0.212539         5.7835    4-Au
  96   0.0000       0.222113         6.0440   23-Ag
  97   0.0000       0.223378         6.0784   20-B3u
  98   0.0000       0.237564         6.4644   18-B2u
  99   0.0000       0.240235         6.5371   17-B1g
 100   0.0000       0.264914         7.2087   24-Ag
 101   0.0000       0.270757         7.3677   25-Ag
 102   0.0000       0.303330         8.2540   19-B2u
 103   0.0000       0.305577         8.3152    8-B1u
 104   0.0000       0.306868         8.3503   21-B3u
 105   0.0000       0.331853         9.0302   26-Ag
 106   0.0000       0.332097         9.0368    6-B3g
 107   0.0000       0.343308         9.3419    5-Au
 108   0.0000       0.344670         9.3789   27-Ag
 109   0.0000       0.345849         9.4110   22-B3u
 110   0.0000       0.364964         9.9312   18-B1g
 111   0.0000       0.370132        10.0718   20-B2u
 112   0.0000       0.372451        10.1349   28-Ag
 113   0.0000       0.373659        10.1678    9-B1u
 114   0.0000       0.376607        10.2480   23-B3u
 115   0.0000       0.385224        10.4825   21-B2u
 116   0.0000       0.387723        10.5505   19-B1g
 117   0.0000       0.401526        10.9261    7-B2g
 118   0.0000       0.403823        10.9886   22-B2u
 119   0.0000       0.405158        11.0249   24-B3u
 120   0.0000       0.407540        11.0897   20-B1g
 121   0.0000       0.411853        11.2071    7-B3g
 122   0.0000       0.415860        11.3161   29-Ag
 123   0.0000       0.422957        11.5093   10-B1u
 124   0.0000       0.432201        11.7608   21-B1g
 125   0.0000       0.433753        11.8030    8-B2g
 126   0.0000       0.435375        11.8471   25-B3u
 127   0.0000       0.435930        11.8622   23-B2u
 128   0.0000       0.436464        11.8768    6-Au
 129   0.0000       0.440973        11.9995   30-Ag
 130   0.0000       0.456390        12.4190   26-B3u
 131   0.0000       0.471223        12.8226    8-B3g
 132   0.0000       0.476254        12.9595   31-Ag
 133   0.0000       0.482149        13.1199   24-B2u
 134   0.0000       0.490757        13.3542   22-B1g
 135   0.0000       0.501023        13.6335    9-B2g
 136   0.0000       0.507357        13.8059   25-B2u
 137   0.0000       0.512743        13.9524    7-Au
 138   0.0000       0.515201        14.0193   11-B1u
 139   0.0000       0.517243        14.0749   32-Ag
 140   0.0000       0.518248        14.1022   27-B3u
 141   0.0000       0.518806        14.1174   23-B1g
 142   0.0000       0.537584        14.6284   24-B1g
 143   0.0000       0.543807        14.7977   28-B3u
 144   0.0000       0.547246        14.8913    9-B3g
 145   0.0000       0.549220        14.9450   10-B2g
 146   0.0000       0.555992        15.1293   26-B2u
 147   0.0000       0.571831        15.5603   33-Ag
 148   0.0000       0.575373        15.6567   29-B3u
 149   0.0000       0.583057        15.8658   34-Ag
 150   0.0000       0.585572        15.9342   12-B1u
 151   0.0000       0.596739        16.2381   30-B3u
 152   0.0000       0.598550        16.2874   35-Ag
 153   0.0000       0.604007        16.4359    8-Au
 154   0.0000       0.613427        16.6922   10-B3g
 155   0.0000       0.630367        17.1532   27-B2u
 156   0.0000       0.637597        17.3499   25-B1g
 157   0.0000       0.639121        17.3914    9-Au
 158   0.0000       0.642600        17.4860   11-B2g
 159   0.0000       0.670214        18.2375   31-B3u
 160   0.0000       0.672240        18.2926   13-B1u
 161   0.0000       0.677617        18.4389   11-B3g
 162   0.0000       0.685366        18.6498   36-Ag
 163   0.0000       0.688952        18.7473   26-B1g
 164   0.0000       0.689060        18.7503   28-B2u
 165   0.0000       0.710828        19.3426   10-Au
 166   0.0000       0.718723        19.5575   14-B1u
 167   0.0000       0.724675        19.7194   12-B2g
 168   0.0000       0.726188        19.7606   29-B2u
 169   0.0000       0.726639        19.7728   27-B1g
 170   0.0000       0.733466        19.9586   37-Ag
 171   0.0000       0.738700        20.1011   32-B3u
 172   0.0000       0.752538        20.4776   33-B3u
 173   0.0000       0.763985        20.7891   30-B2u
 174   0.0000       0.772636        21.0245   38-Ag
 175   0.0000       0.787876        21.4392   28-B1g
 176   0.0000       0.789146        21.4737   31-B2u
 177   0.0000       0.810022        22.0418   29-B1g
 178   0.0000       0.817696        22.2506   34-B3u
 179   0.0000       0.830158        22.5897   39-Ag
 180   0.0000       0.841113        22.8878   32-B2u
 181   0.0000       0.858016        23.3478   30-B1g
 182   0.0000       0.890925        24.2433   40-Ag
 183   0.0000       0.895752        24.3747   33-B2u
 184   0.0000       0.899970        24.4894   35-B3u
 185   0.0000       0.903775        24.5930   41-Ag
 186   0.0000       0.910197        24.7677   31-B1g
 187   0.0000       0.925515        25.1845   36-B3u
 188   0.0000       0.928139        25.2560   34-B2u
 189   0.0000       0.945724        25.7344   42-Ag
 190   0.0000       0.950472        25.8637   32-B1g
 191   0.0000       0.957996        26.0684   15-B1u
 192   0.0000       0.964428        26.2434   35-B2u
 193   0.0000       0.970614        26.4117   12-B3g
 194   0.0000       0.976890        26.5825   11-Au
 195   0.0000       0.979134        26.6436   33-B1g
 196   0.0000       0.983054        26.7502   37-B3u
 197   0.0000       0.983627        26.7658   36-B2u
 198   0.0000       0.987362        26.8675   13-B2g
 199   0.0000       0.997729        27.1496   14-B2g
 200   0.0000       1.000076        27.2135   16-B1u
 201   0.0000       1.003605        27.3095   34-B1g
 202   0.0000       1.006492        27.3880   43-Ag
 203   0.0000       1.038496        28.2589   38-B3u
 204   0.0000       1.042620        28.3711   37-B2u
 205   0.0000       1.073140        29.2016   39-B3u
 206   0.0000       1.078202        29.3394   44-Ag
 207   0.0000       1.081557        29.4307   17-B1u
 208   0.0000       1.081722        29.4352   35-B1g
 209   0.0000       1.091012        29.6880   13-B3g
 210   0.0000       1.103030        30.0150   38-B2u
 211   0.0000       1.112533        30.2736   18-B1u
 212   0.0000       1.122829        30.5537   15-B2g
 213   0.0000       1.124272        30.5930   12-Au
 214   0.0000       1.137673        30.9577   40-B3u
 215   0.0000       1.143213        31.1084   45-Ag
 216   0.0000       1.146415        31.1955   36-B1g
 217   0.0000       1.153159        31.3791   14-B3g
 218   0.0000       1.158487        31.5240   16-B2g
 219   0.0000       1.165619        31.7181   19-B1u
 220   0.0000       1.180261        32.1165   17-B2g
 221   0.0000       1.199068        32.6283   46-Ag
 222   0.0000       1.208472        32.8842   41-B3u
 223   0.0000       1.275967        34.7208   47-Ag
 224   0.0000       1.293506        35.1981   20-B1u
 225   0.0000       1.294117        35.2147   39-B2u
 226   0.0000       1.301149        35.4061   37-B1g
 227   0.0000       1.323234        36.0070   40-B2u
 228   0.0000       1.323673        36.0190   42-B3u
 229   0.0000       1.329709        36.1832   15-B3g
 230   0.0000       1.338975        36.4354   18-B2g
 231   0.0000       1.340395        36.4740   13-Au
 232   0.0000       1.345036        36.6003   43-B3u
 233   0.0000       1.356596        36.9148   48-Ag
 234   0.0000       1.373663        37.3793   16-B3g
 235   0.0000       1.377084        37.4724   21-B1u
 236   0.0000       1.383760        37.6540   41-B2u
 237   0.0000       1.416861        38.5547   19-B2g
 238   0.0000       1.421213        38.6732   38-B1g
 239   0.0000       1.432646        38.9843   22-B1u
 240   0.0000       1.439177        39.1620   17-B3g
 241   0.0000       1.439715        39.1766   49-Ag
 242   0.0000       1.440677        39.2028   14-Au
 243   0.0000       1.467291        39.9270   18-B3g
 244   0.0000       1.474143        40.1135   50-Ag
 245   0.0000       1.481569        40.3156   20-B2g
 246   0.0000       1.485845        40.4319   23-B1u
 247   0.0000       1.499184        40.7949   15-Au
 248   0.0000       1.500643        40.8346   44-B3u
 249   0.0000       1.511524        41.1307   21-B2g
 250   0.0000       1.522292        41.4237   16-Au
 251   0.0000       1.526234        41.5309   39-B1g
 252   0.0000       1.528460        41.5915   42-B2u
 253   0.0000       1.542964        41.9862   19-B3g
 254   0.0000       1.548173        42.1279   45-B3u
 255   0.0000       1.553982        42.2860   40-B1g
 256   0.0000       1.556236        42.3473   43-B2u
 257   0.0000       1.561882        42.5010   51-Ag
 258   0.0000       1.563984        42.5582   17-Au
 259   0.0000       1.578226        42.9457   20-B3g
 260   0.0000       1.593009        43.3480   44-B2u
 261   0.0000       1.599307        43.5193   46-B3u
 262   0.0000       1.611114        43.8406   52-Ag
 263   0.0000       1.618049        44.0294   24-B1u
 264   0.0000       1.626214        44.2515   47-B3u
 265   0.0000       1.630078        44.3567   22-B2g
 266   0.0000       1.637413        44.5563   18-Au
 267   0.0000       1.656807        45.0840   25-B1u
 268   0.0000       1.668163        45.3930   41-B1g
 269   0.0000       1.718306        46.7575   48-B3u
 270   0.0000       1.721733        46.8507   42-B1g
 271   0.0000       1.723792        46.9068   53-Ag
 272   0.0000       1.730582        47.0915   23-B2g
 273   0.0000       1.733410        47.1685   19-Au
 274   0.0000       1.733490        47.1707   54-Ag
 275   0.0000       1.747241        47.5448   21-B3g
 276   0.0000       1.757140        47.8142   45-B2u
 277   0.0000       1.774138        48.2767   46-B2u
 278   0.0000       1.776469        48.3402   55-Ag
 279   0.0000       1.779842        48.4320   43-B1g
 280   0.0000       1.783515        48.5319   26-B1u
 281   0.0000       1.783546        48.5328   49-B3u
 282   0.0000       1.801250        49.0145   20-Au
 283   0.0000       1.814383        49.3719   47-B2u
 284   0.0000       1.817514        49.4571   44-B1g
 285   0.0000       1.823821        49.6287   50-B3u
 286   0.0000       1.825178        49.6656   56-Ag
 287   0.0000       1.832711        49.8706   27-B1u
 288   0.0000       1.837539        50.0020   22-B3g
 289   0.0000       1.848736        50.3067   57-Ag
 290   0.0000       1.852567        50.4109   21-Au
 291   0.0000       1.854252        50.4568   24-B2g
 292   0.0000       1.871912        50.9373   51-B3u
 293   0.0000       1.887427        51.3595   45-B1g
 294   0.0000       1.890793        51.4511   52-B3u
 295   0.0000       1.911218        52.0069   58-Ag
 296   0.0000       1.929649        52.5084   59-Ag
 297   0.0000       1.938747        52.7560   53-B3u
 298   0.0000       1.954405        53.1821   48-B2u
 299   0.0000       1.957071        53.2546   46-B1g
 300   0.0000       1.965090        53.4728   54-B3u
 301   0.0000       1.992518        54.2192   49-B2u
 302   0.0000       2.002446        54.4893   47-B1g
 303   0.0000       2.009651        54.6854   23-B3g
 304   0.0000       2.018220        54.9186   50-B2u
 305   0.0000       2.026884        55.1543   22-Au
 306   0.0000       2.028558        55.1999   48-B1g
 307   0.0000       2.065478        56.2045   51-B2u
 308   0.0000       2.079043        56.5736   25-B2g
 309   0.0000       2.079489        56.5858   28-B1u
 310   0.0000       2.084094        56.7111   60-Ag
 311   0.0000       2.091962        56.9252   49-B1g
 312   0.0000       2.108226        57.3678   29-B1u
 313   0.0000       2.111931        57.4686   26-B2g
 314   0.0000       2.120647        57.7057   55-B3u
 315   0.0000       2.135870        58.1200   24-B3g
 316   0.0000       2.151846        58.5547   23-Au
 317   0.0000       2.164664        58.9035   52-B2u
 318   0.0000       2.164950        58.9113   50-B1g
 319   0.0000       2.171719        59.0955   61-Ag
 320   0.0000       2.172354        59.1128   56-B3u
 321   0.0000       2.186265        59.4913   51-B1g
 322   0.0000       2.187512        59.5252   25-B3g
 323   0.0000       2.188087        59.5409   27-B2g
 324   0.0000       2.197028        59.7842   62-Ag
 325   0.0000       2.198866        59.8342   53-B2u
 326   0.0000       2.207902        60.0801   57-B3u
 327   0.0000       2.261892        61.5492   58-B3u
 328   0.0000       2.264870        61.6303   54-B2u
 329   0.0000       2.265849        61.6569   63-Ag
 330   0.0000       2.276946        61.9589   55-B2u
 331   0.0000       2.278536        62.0021   26-B3g
 332   0.0000       2.280882        62.0659   24-Au
 333   0.0000       2.284660        62.1688   52-B1g
 334   0.0000       2.299288        62.5668   53-B1g
 335   0.0000       2.324897        63.2637   59-B3u
 336   0.0000       2.344264        63.7907   30-B1u
 337   0.0000       2.349116        63.9227   56-B2u
 338   0.0000       2.350575        63.9624   64-Ag
 339   0.0000       2.357163        64.1417   28-B2g
 340   0.0000       2.367859        64.4327   54-B1g
 341   0.0000       2.374044        64.6010   60-B3u
 342   0.0000       2.407976        65.5244   61-B3u
 343   0.0000       2.414015        65.6887   57-B2u
 344   0.0000       2.414900        65.7128   65-Ag
 345   0.0000       2.456817        66.8534   66-Ag
 346   0.0000       2.463880        67.0456   31-B1u
 347   0.0000       2.468388        67.1682   29-B2g
 348   0.0000       2.473580        67.3095   55-B1g
 349   0.0000       2.480383        67.4947   27-B3g
 350   0.0000       2.482747        67.5590   58-B2u
 351   0.0000       2.489534        67.7437   25-Au
 352   0.0000       2.555458        69.5375   62-B3u
 353   0.0000       2.556724        69.5720   67-Ag
 354   0.0000       2.571421        69.9719   63-B3u
 355   0.0000       2.577289        70.1316   56-B1g
 356   0.0000       2.586821        70.3910   59-B2u
 357   0.0000       2.613789        71.1248   26-Au
 358   0.0000       2.617771        71.2332   28-B3g
 359   0.0000       2.644441        71.9589   68-Ag
 360   0.0000       2.687797        73.1387   69-Ag
 361   0.0000       2.706518        73.6481   32-B1u
 362   0.0000       2.712556        73.8124   30-B2g
 363   0.0000       2.740520        74.5734   64-B3u
 364   0.0000       2.755766        74.9882   70-Ag
 365   0.0000       2.783318        75.7379   29-B3g
 366   0.0000       2.790157        75.9240   27-Au
 367   0.0000       2.807218        76.3883   57-B1g
 368   0.0000       2.810390        76.4746   60-B2u
 369   0.0000       2.843243        77.3686   65-B3u
 370   0.0000       2.849279        77.5328   61-B2u
 371   0.0000       2.852490        77.6202   58-B1g
 372   0.0000       2.856334        77.7248   30-B3g
 373   0.0000       2.856861        77.7391   28-Au
 374   0.0000       2.866347        77.9973   71-Ag
 375   0.0000       2.885303        78.5131   66-B3u
 376   0.0000       2.900753        78.9335   33-B1u
 377   0.0000       2.907131        79.1071   72-Ag
 378   0.0000       2.908046        79.1319   62-B2u
 379   0.0000       2.926098        79.6232   67-B3u
 380   0.0000       2.927872        79.6715   59-B1g
 381   0.0000       2.971606        80.8615   63-B2u
 382   0.0000       2.973130        80.9030   31-B2g
 383   0.0000       2.974489        80.9400   34-B1u
 384   0.0000       2.975653        80.9716   60-B1g
 385   0.0000       2.993711        81.4630   73-Ag
 386   0.0000       3.073531        83.6350   68-B3u
 387   0.0000       3.076951        83.7281   61-B1g
 388   0.0000       3.086845        83.9973   64-B2u
 389   0.0000       3.105912        84.5162   65-B2u
 390   0.0000       3.111156        84.6589   74-Ag
 391   0.0000       3.133302        85.2615   62-B1g
 392   0.0000       3.148545        85.6763   35-B1u
 393   0.0000       3.152366        85.7802   69-B3u
 394   0.0000       3.173922        86.3668   66-B2u
 395   0.0000       3.218985        87.5930   29-Au
 396   0.0000       3.242261        88.2264   31-B3g
 397   0.0000       3.243297        88.2546   30-Au
 398   0.0000       3.290213        89.5312   70-B3u
 399   0.0000       3.290898        89.5499   67-B2u
 400   0.0000       3.305408        89.9447   63-B1g
 401   0.0000       3.310262        90.0768   64-B1g
 402   0.0000       3.398294        92.4723   68-B2u
 403   0.0000       3.409343        92.7729   36-B1u
 404   0.0000       3.409615        92.7803   32-B2g
 405   0.0000       3.416758        92.9747   65-B1g
 406   0.0000       3.422736        93.1374   75-Ag
 407   0.0000       3.443519        93.7029   71-B3u
 408   0.0000       3.590197        97.6942   32-B3g
 409   0.0000       3.590499        97.7024   31-Au
 410   0.0000       3.617314        98.4321   76-Ag
 411   0.0000       3.623440        98.5988   72-B3u
 412   0.0000       3.643461        99.1436   69-B2u
 413   0.0000       3.666915        99.7818   73-B3u
 414   0.0000       3.691717       100.4567   70-B2u
 415   0.0000       3.700395       100.6929   66-B1g
 416   0.0000       3.703213       100.7696   77-Ag
 417   0.0000       3.721905       101.2782   74-B3u
 418   0.0000       3.766915       102.5030   33-B2g
 419   0.0000       3.767023       102.5059   37-B1u
 420   0.0000       3.771026       102.6148   67-B1g
 421   0.0000       3.794173       103.2447   71-B2u
 422   0.0000       3.864794       105.1664   68-B1g
 423   0.0000       3.873975       105.4162   72-B2u
 424   0.0000       3.905560       106.2757   78-Ag
 425   0.0000       3.952108       107.5423   75-B3u
 426   0.0000       3.982642       108.3732   33-B3g
 427   0.0000       3.982816       108.3779   32-Au
 428   0.0000       4.026316       109.5616   73-B2u
 429   0.0000       4.053584       110.3036   69-B1g
 430   0.0000       4.058294       110.4318   70-B1g
 431   0.0000       4.059810       110.4730   74-B2u
 432   0.0000       4.068529       110.7103   79-Ag
 433   0.0000       4.202348       114.3517   76-B3u
 434   0.0000       4.324873       117.6858   80-Ag
 435   0.0000       4.347056       118.2894   77-B3u
 436   0.0000       4.375018       119.0503   75-B2u
 437   0.0000       4.382826       119.2628   71-B1g
 438   0.0000       4.480278       121.9146   81-Ag
 439   0.0000       4.679087       127.3244   82-Ag
 440   0.0000       4.692044       127.6770   78-B3u
 441   0.0000       4.725392       128.5845   72-B1g
 442   0.0000       4.725659       128.5917   76-B2u
 443   0.0000       4.881125       132.8222   73-B1g
 444   0.0000       4.886331       132.9638   77-B2u
 445   0.0000       4.982029       135.5679   78-B2u
 446   0.0000       5.005289       136.2008   74-B1g
 447   0.0000       5.200697       141.5181   83-Ag
 448   0.0000       5.214962       141.9063   79-B3u
 449   0.0000       5.536294       150.6502   79-B2u
 450   0.0000       5.545751       150.9076   75-B1g
 451   0.0000       5.667044       154.2081   34-B3g
 452   0.0000       5.747284       156.3915   34-B2g
 453   0.0000       6.493544       176.6983   84-Ag
 454   0.0000       6.546065       178.1275   38-B1u
 455   0.0000       6.817218       185.5059   85-Ag
 456   0.0000       7.923750       215.6162   76-B1g
 457   0.0000       8.189240       222.8406   80-B3u
 458   0.0000       8.297783       225.7941   80-B2u
 459   0.0000      10.288677       279.9691   39-B1u
 460   0.0000      10.541776       286.8563   81-B2u
 461   0.0000      10.593447       288.2623   40-B1u
 462   0.0000      10.627011       289.1757   81-B3u
 463   0.0000      10.703446       291.2556   33-Au
 464   0.0000      11.170246       303.9579   82-B3u
 465   0.0000      11.225918       305.4728   35-B3g
 466   0.0000      11.228218       305.5353   35-B2g
 467   0.0000      11.232495       305.6517   82-B2u
 468   0.0000      11.234209       305.6984   86-Ag
 469   0.0000      11.241061       305.8848   87-Ag
 470   0.0000      11.274175       306.7859   36-B2g
 471   0.0000      11.275379       306.8187   36-B3g
 472   0.0000      11.296330       307.3888   77-B1g
 473   0.0000      11.306305       307.6602   78-B1g
 474   0.0000      11.352360       308.9134   88-Ag

                 SPIN DOWN ORBITALS
  NO   OCC          E(Eh)            E(eV)    Irrep 
   0   1.0000    -318.181107     -8658.1481    1-Ag
   1   1.0000     -88.013107     -2394.9584    1-B3u
   2   1.0000     -88.013095     -2394.9581    1-B1g
   3   1.0000     -88.013091     -2394.9580    1-B2u
   4   1.0000     -88.013057     -2394.9570    2-Ag
   5   1.0000     -38.010603     -1034.3211    3-Ag
   6   1.0000     -33.514457      -911.9748    2-B2u
   7   1.0000     -33.513643      -911.9526    2-B3u
   8   1.0000     -33.510665      -911.8716    1-B1u
   9   1.0000      -9.832494      -267.5558    3-B3u
  10   1.0000      -9.832488      -267.5556    4-Ag
  11   1.0000      -9.832161      -267.5467    2-B1g
  12   1.0000      -9.832158      -267.5466    3-B2u
  13   1.0000      -9.823566      -267.3128    4-B3u
  14   1.0000      -9.823566      -267.3128    5-Ag
  15   1.0000      -9.823135      -267.3011    3-B1g
  16   1.0000      -9.823135      -267.3011    4-B2u
  17   1.0000      -9.816175      -267.1117    4-B1g
  18   1.0000      -9.816174      -267.1117    5-B2u
  19   1.0000      -9.816170      -267.1116    5-B3u
  20   1.0000      -9.816170      -267.1116    6-Ag
  21   1.0000      -7.582139      -206.3205    5-B1g
  22   1.0000      -7.582139      -206.3205    6-B2u
  23   1.0000      -7.582136      -206.3204    6-B3u
  24   1.0000      -7.582124      -206.3201    7-Ag
  25   1.0000      -5.505148      -149.8027    6-B1g
  26   1.0000      -5.505148      -149.8027    7-B2u
  27   1.0000      -5.505147      -149.8027    7-B3u
  28   1.0000      -5.505147      -149.8027    8-Ag
  29   1.0000      -5.498525      -149.6225    7-B1g
  30   1.0000      -5.498525      -149.6225    8-B2u
  31   1.0000      -5.498525      -149.6225    8-B3u
  32   1.0000      -5.498525      -149.6225    9-Ag
  33   1.0000      -5.498126      -149.6116    1-Au
  34   1.0000      -5.498126      -149.6116    1-B3g
  35   1.0000      -5.498126      -149.6116    1-B2g
  36   1.0000      -5.498125      -149.6116    2-B1u
  37   1.0000      -3.990307      -108.5818   10-Ag
  38   1.0000      -2.504836       -68.1601    3-B1u
  39   1.0000      -2.503414       -68.1213    9-B2u
  40   1.0000      -2.501854       -68.0789    9-B3u
  41   1.0000      -0.588978       -16.0269   11-Ag
  42   1.0000      -0.588871       -16.0240   10-B3u
  43   1.0000      -0.503178       -13.6922   12-Ag
  44   1.0000      -0.502157       -13.6644   11-B3u
  45   1.0000      -0.488865       -13.3027   10-B2u
  46   1.0000      -0.488641       -13.2966    8-B1g
  47   1.0000      -0.405657       -11.0385   11-B2u
  48   1.0000      -0.402982       -10.9657    9-B1g
  49   1.0000      -0.384569       -10.4647   13-Ag
  50   1.0000      -0.378049       -10.2872   12-B3u
  51   1.0000      -0.320713        -8.7270   14-Ag
  52   1.0000      -0.317741        -8.6462   13-B3u
  53   1.0000      -0.298133        -8.1126   12-B2u
  54   1.0000      -0.294218        -8.0061   10-B1g
  55   1.0000      -0.232344        -6.3224   15-Ag
  56   1.0000      -0.226953        -6.1757   14-B3u
  57   1.0000      -0.188921        -5.1408   16-Ag
  58   1.0000      -0.188141        -5.1196   15-B3u
  59   1.0000      -0.176893        -4.8135   13-B2u
  60   1.0000      -0.173612        -4.7242   11-B1g
  61   1.0000      -0.145878        -3.9696   14-B2u
  62   1.0000      -0.142053        -3.8654   12-B1g
  63   1.0000      -0.129763        -3.5310   17-Ag
  64   1.0000      -0.116700        -3.1756    4-B1u
  65   1.0000      -0.116566        -3.1719    2-B2g
  66   1.0000      -0.112666        -3.0658   16-B3u
  67   1.0000      -0.085125        -2.3164   18-Ag
  68   1.0000      -0.067996        -1.8503   15-B2u
  69   1.0000      -0.060269        -1.6400   17-B3u
  70   1.0000      -0.050640        -1.3780   13-B1g
  71   1.0000      -0.036757        -1.0002    3-B2g
  72   1.0000      -0.036338        -0.9888    5-B1u
  73   1.0000      -0.023077        -0.6280    2-B3g
  74   1.0000      -0.022162        -0.6031   19-Ag
  75   1.0000      -0.018439        -0.5018    2-Au
  76   1.0000      -0.002381        -0.0648   14-B1g
  77   1.0000       0.006943         0.1889    3-B3g
  78   1.0000       0.010356         0.2818   20-Ag
  79   1.0000       0.013770         0.3747    4-B2g
  80   1.0000       0.025985         0.7071   18-B3u
  81   1.0000       0.034355         0.9348   21-Ag
  82   1.0000       0.043170         1.1747   16-B2u
  83   1.0000       0.053145         1.4461    3-Au
  84   1.0000       0.058049         1.5796    4-B3g
  85   1.0000       0.064585         1.7575    6-B1u
  86   1.0000       0.091953         2.5022    5-B2g
  87   0.0000       0.138278         3.7627   15-B1g
  88   0.0000       0.182629         4.9696   22-Ag
  89   0.0000       0.182716         4.9720   19-B3u
  90   0.0000       0.198797         5.4095   16-B1g
  91   0.0000       0.199006         5.4152   17-B2u
  92   0.0000       0.201012         5.4698    7-B1u
  93   0.0000       0.204233         5.5575    6-B2g
  94   0.0000       0.207817         5.6550    5-B3g
  95   0.0000       0.212941         5.7944    4-Au
  96   0.0000       0.221259         6.0208   23-Ag
  97   0.0000       0.222444         6.0530   20-B3u
  98   0.0000       0.237387         6.4596   18-B2u
  99   0.0000       0.240249         6.5375   17-B1g
 100   0.0000       0.267822         7.2878   24-Ag
 101   0.0000       0.273846         7.4517   25-Ag
 102   0.0000       0.305804         8.3214   19-B2u
 103   0.0000       0.306594         8.3428    8-B1u
 104   0.0000       0.309625         8.4253   21-B3u
 105   0.0000       0.332086         9.0365    6-B3g
 106   0.0000       0.332452         9.0465   26-Ag
 107   0.0000       0.343224         9.3396    5-Au
 108   0.0000       0.347562         9.4577   22-B3u
 109   0.0000       0.349839         9.5196   27-Ag
 110   0.0000       0.368334        10.0229   18-B1g
 111   0.0000       0.372351        10.1322   20-B2u
 112   0.0000       0.374476        10.1900   28-Ag
 113   0.0000       0.374911        10.2018    9-B1u
 114   0.0000       0.377313        10.2672   23-B3u
 115   0.0000       0.385692        10.4952   21-B2u
 116   0.0000       0.389331        10.5942   19-B1g
 117   0.0000       0.401638        10.9291    7-B2g
 118   0.0000       0.406092        11.0503   24-B3u
 119   0.0000       0.406407        11.0589   22-B2u
 120   0.0000       0.408078        11.1044   20-B1g
 121   0.0000       0.412939        11.2366    7-B3g
 122   0.0000       0.417318        11.3558   29-Ag
 123   0.0000       0.422958        11.5093   10-B1u
 124   0.0000       0.434202        11.8152    8-B2g
 125   0.0000       0.434593        11.8259   21-B1g
 126   0.0000       0.436361        11.8740    6-Au
 127   0.0000       0.436904        11.8888   25-B3u
 128   0.0000       0.439827        11.9683   23-B2u
 129   0.0000       0.441368        12.0102   30-Ag
 130   0.0000       0.458037        12.4638   26-B3u
 131   0.0000       0.471473        12.8294    8-B3g
 132   0.0000       0.479141        13.0381   31-Ag
 133   0.0000       0.482770        13.1368   24-B2u
 134   0.0000       0.492248        13.3947   22-B1g
 135   0.0000       0.504631        13.7317    9-B2g
 136   0.0000       0.509796        13.8723   25-B2u
 137   0.0000       0.512780        13.9535    7-Au
 138   0.0000       0.515721        14.0335   11-B1u
 139   0.0000       0.520228        14.1561   32-Ag
 140   0.0000       0.522090        14.2068   27-B3u
 141   0.0000       0.522945        14.2301   23-B1g
 142   0.0000       0.541109        14.7243   24-B1g
 143   0.0000       0.544268        14.8103   28-B3u
 144   0.0000       0.549275        14.9465   10-B2g
 145   0.0000       0.549604        14.9555    9-B3g
 146   0.0000       0.559222        15.2172   26-B2u
 147   0.0000       0.574141        15.6232   33-Ag
 148   0.0000       0.577841        15.7238   29-B3u
 149   0.0000       0.584453        15.9038   34-Ag
 150   0.0000       0.585515        15.9327   12-B1u
 151   0.0000       0.597579        16.2609   30-B3u
 152   0.0000       0.598963        16.2986   35-Ag
 153   0.0000       0.604149        16.4397    8-Au
 154   0.0000       0.614706        16.7270   10-B3g
 155   0.0000       0.632404        17.2086   27-B2u
 156   0.0000       0.640233        17.4216   25-B1g
 157   0.0000       0.643775        17.5180    9-Au
 158   0.0000       0.644372        17.5343   11-B2g
 159   0.0000       0.671047        18.2601   31-B3u
 160   0.0000       0.675640        18.3851   13-B1u
 161   0.0000       0.679031        18.4774   11-B3g
 162   0.0000       0.686325        18.6758   36-Ag
 163   0.0000       0.688854        18.7447   28-B2u
 164   0.0000       0.689118        18.7519   26-B1g
 165   0.0000       0.712440        19.3865   10-Au
 166   0.0000       0.719771        19.5860   14-B1u
 167   0.0000       0.724797        19.7227   12-B2g
 168   0.0000       0.727693        19.8015   29-B2u
 169   0.0000       0.728240        19.8164   27-B1g
[...]
 -----------------------------------------------------------
 Solving for nuclear perturbation:
Forming RHS of the CP-SCF equations         ... 
Calc. nucleus orbit integrals (SHARK)       ... done

Forming final perturbed densities           ... done
Transforming perturbed density to AO basis  ... done

 Raw HFC matrix (all values in MHz): 
 -----------------------------------
                 1.5636               0.0977               0.0002
                 0.0981               0.7405               0.0001
                 0.0002               0.0002               0.5319

 A(FC)           0.9435               0.9435               0.9435
 A(SD)          -0.4024              -0.2188               0.6212
 A(ORB+DIA)     -0.0093               0.0044               0.0104    A(PC) =   0.0018
 A(ORB)         -0.0092               0.0045               0.0103    A(PC) =   0.0019
 A(DIA)         -0.0001              -0.0001               0.0002    A(PC) =  -0.0000
             ----------           ----------           ----------
 A(Tot)          0.5319               0.7291               1.5751    A(iso)=    0.9453
 Orientation: 
  X          -0.0001930           -0.1162965           -0.9932145
  Y          -0.0003420            0.9932145           -0.1162964
  Z           0.9999999            0.0003172           -0.0002314

Notes:  (1) The A matrix conforms to the "SAI" spin Hamiltonian convention.
        (2) Tensor is right-handed.

 Raw EFG matrix (all values in a.u.**-3):
 -----------------------------------
             0.1986       0.2038      -0.0000
             0.2038      -0.0241       0.0000
            -0.0000       0.0000      -0.1744

 V(El)       0.6092       0.8390      -1.4483
 V(Nuc)     -0.7542      -1.0135       1.7677
         ----------   ----------   ----------
 V(Tot)     -0.1450      -0.1744       0.3194 
 Orientation: 
  X      -0.5101472    0.0000000    0.8600871
  Y       0.8600871   -0.0000000    0.5101472
  Z       0.0000000    1.0000000   -0.0000000

Note: Tensor is right-handed


 Quadrupole tensor eigenvalues (in MHz;Q= 0.0029 I=  1.0)
  e**2qQ            =     0.214484 MHz 
  e**2qQ/(4I*(2I-1))=     0.053621 MHz 
  eta               =     0.092219
  NOTE: the diagonal representation of the SH term I*Q*I = e**2qQ/(4I(2I-1))*[-(1-eta),-(1+eta),2]

 RHO(0)=      0.477951997 a.u.**-3

 -----------------------------------------------------------
 Nucleus  20H : A:ISTP=    1 I=  0.5 P=533.5514 MHz/au**3
                Q:ISTP=    2 I=  1.0 Q=  0.0029 barn     
 -----------------------------------------------------------
 Solving for nuclear perturbation:
Forming RHS of the CP-SCF equations         ... 
Calc. nucleus orbit integrals (SHARK)       ... done

Forming final perturbed densities           ... done
Transforming perturbed density to AO basis  ... done

 Raw HFC matrix (all values in MHz): 
 -----------------------------------
                 2.9531               0.9335               0.0009
                 0.9279               0.8342               0.0001
                 0.0002               0.0002              -0.1425

 A(FC)           1.2213               1.2213               1.2213
 A(SD)          -1.3438              -0.7347               2.0785
 A(ORB+DIA)     -0.0200              -0.0031               0.0040    A(PC) =  -0.0064
 A(ORB)         -0.0197              -0.0026               0.0036    A(PC) =  -0.0062
 A(DIA)         -0.0003              -0.0005               0.0004    A(PC) =  -0.0001
             ----------           ----------           ----------
 A(Tot)         -0.1425               0.4835               3.3038    A(iso)=    1.2149
 Orientation: 
  X          -0.0004082            0.3533364            0.9354962
  Y           0.0003340           -0.9354962            0.3533366
  Z           0.9999999            0.0004567            0.0002638

Notes:  (1) The A matrix conforms to the "SAI" spin Hamiltonian convention.
        (2) Tensor is right-handed.

 Raw EFG matrix (all values in a.u.**-3):
 -----------------------------------
            -0.1454       0.0009      -0.0000
             0.0009       0.3155       0.0000
            -0.0000       0.0000      -0.1701

 V(El)       0.3258       0.9625      -1.2883
 V(Nuc)     -0.4712      -1.1326       1.6038
         ----------   ----------   ----------
 V(Tot)     -0.1454      -0.1701       0.3155 
 Orientation: 
  X       0.9999979    0.0000000   -0.0020368
  Y      -0.0020368   -0.0000000   -0.9999979
  Z      -0.0000000    1.0000000   -0.0000000

Note: Tensor is right-handed


 Quadrupole tensor eigenvalues (in MHz;Q= 0.0029 I=  1.0)
  e**2qQ            =     0.211855 MHz 
  e**2qQ/(4I*(2I-1))=     0.052964 MHz 
  eta               =     0.078397
  NOTE: the diagonal representation of the SH term I*Q*I = e**2qQ/(4I(2I-1))*[-(1-eta),-(1+eta),2]

 RHO(0)=      0.477261078 a.u.**-3

 -----------------------------------------------------------
 Nucleus  22H : A:ISTP=    1 I=  0.5 P=533.5514 MHz/au**3
                Q:ISTP=    2 I=  1.0 Q=  0.0029 barn     
 -----------------------------------------------------------
 Solving for nuclear perturbation:
Forming RHS of the CP-SCF equations         ... 
Calc. nucleus orbit integrals (SHARK)       ... done

Forming final perturbed densities           ... done
Transforming perturbed density to AO basis  ... done

 Raw HFC matrix (all values in MHz): 
 -----------------------------------
                 2.9523              -0.9337               0.0010
                -0.9366               0.8270               0.0001
                 0.0001              -0.0002              -0.1412

 A(FC)           1.2213               1.2213               1.2213
 A(SD)          -1.3438              -0.7348               2.0785
 A(ORB+DIA)     -0.0187              -0.0124               0.0054    A(PC) =  -0.0086
 A(ORB)         -0.0184              -0.0120               0.0050    A(PC) =  -0.0084
 A(DIA)         -0.0003              -0.0005               0.0004    A(PC) =  -0.0001
             ----------           ----------           ----------
 A(Tot)         -0.1412               0.4741               3.3052    A(iso)=    1.2127
 Orientation: 
  X          -0.0004662           -0.3526917            0.9357394
  Y          -0.0005205           -0.9357393           -0.3526920
  Z           0.9999998           -0.0006515            0.0002527

Notes:  (1) The A matrix conforms to the "SAI" spin Hamiltonian convention.
        (2) Tensor is right-handed.

 Raw EFG matrix (all values in a.u.**-3):
 -----------------------------------
            -0.1454      -0.0009      -0.0000
            -0.0009       0.3155      -0.0000
            -0.0000      -0.0000      -0.1701

 V(El)       0.3258       0.9625      -1.2883
 V(Nuc)     -0.4712      -1.1326       1.6038
         ----------   ----------   ----------
 V(Tot)     -0.1454      -0.1701       0.3155 
 Orientation: 
  X      -0.9999979    0.0000000   -0.0020368
  Y      -0.0020368    0.0000000    0.9999979
  Z       0.0000000    1.0000000   -0.0000000

Note: Tensor is right-handed


 Quadrupole tensor eigenvalues (in MHz;Q= 0.0029 I=  1.0)
  e**2qQ            =     0.211855 MHz 
  e**2qQ/(4I*(2I-1))=     0.052964 MHz 
  eta               =     0.078397
  NOTE: the diagonal representation of the SH term I*Q*I = e**2qQ/(4I(2I-1))*[-(1-eta),-(1+eta),2]

 RHO(0)=      0.477261078 a.u.**-3

 -----------------------------------------------------------
 Nucleus  23H : A:ISTP=    1 I=  0.5 P=533.5514 MHz/au**3
                Q:ISTP=    2 I=  1.0 Q=  0.0029 barn     
 -----------------------------------------------------------
 Solving for nuclear perturbation:
Forming RHS of the CP-SCF equations         ... 
Calc. nucleus orbit integrals (SHARK)       ... done

Forming final perturbed densities           ... done
Transforming perturbed density to AO basis  ... done

 Raw HFC matrix (all values in MHz): 
 -----------------------------------
                 1.5636               0.0977               0.0002
                 0.0981               0.7405               0.0001
                 0.0002               0.0003               0.5320

 A(FC)           0.9435               0.9435               0.9435
 A(SD)          -0.4024              -0.2188               0.6212
 A(ORB+DIA)     -0.0091               0.0043               0.0104    A(PC) =   0.0019
 A(ORB)         -0.0091               0.0045               0.0103    A(PC) =   0.0019
 A(DIA)         -0.0001              -0.0001               0.0002    A(PC) =  -0.0000
             ----------           ----------           ----------
 A(Tot)          0.5320               0.7290               1.5751    A(iso)=    0.9454
 Orientation: 
  X          -0.0001704           -0.1163105           -0.9932129
  Y          -0.0003017            0.9932129           -0.1163105
  Z           0.9999999            0.0002798           -0.0002044

Notes:  (1) The A matrix conforms to the "SAI" spin Hamiltonian convention.
        (2) Tensor is right-handed.

 Raw EFG matrix (all values in a.u.**-3):
 -----------------------------------
             0.1986       0.2038      -0.0000
             0.2038      -0.0241       0.0000
            -0.0000       0.0000      -0.1744

 V(El)       0.6092       0.8390      -1.4483
 V(Nuc)     -0.7542      -1.0135       1.7677
         ----------   ----------   ----------
 V(Tot)     -0.1450      -0.1744       0.3194 
 Orientation: 
  X      -0.5101472    0.0000000    0.8600871
  Y       0.8600871   -0.0000000    0.5101472
  Z       0.0000000    1.0000000    0.0000000

Note: Tensor is right-handed


 Quadrupole tensor eigenvalues (in MHz;Q= 0.0029 I=  1.0)
  e**2qQ            =     0.214484 MHz 
  e**2qQ/(4I*(2I-1))=     0.053621 MHz 
  eta               =     0.092219
  NOTE: the diagonal representation of the SH term I*Q*I = e**2qQ/(4I(2I-1))*[-(1-eta),-(1+eta),2]

 RHO(0)=      0.477951997 a.u.**-3

 -----------------------------------------------------------
 Nucleus  24H : A:ISTP=    1 I=  0.5 P=533.5514 MHz/au**3
                Q:ISTP=    2 I=  1.0 Q=  0.0029 barn     
 -----------------------------------------------------------
 Solving for nuclear perturbation:
Forming RHS of the CP-SCF equations         ... 
Calc. nucleus orbit integrals (SHARK)       ... done

Forming final perturbed densities           ... done
Transforming perturbed density to AO basis  ... done

 Raw HFC matrix (all values in MHz): 
 -----------------------------------
                 1.5638              -0.0983               0.0002
                -0.0879               0.7295               0.0001
                 0.0001               0.0002               0.5322

 A(FC)           0.9435               0.9435               0.9435
 A(SD)          -0.4024              -0.2188               0.6212
 A(ORB+DIA)     -0.0089              -0.0054               0.0093    A(PC) =  -0.0017
 A(ORB)         -0.0088              -0.0053               0.0091    A(PC) =  -0.0017
 A(DIA)         -0.0001              -0.0001               0.0002    A(PC) =  -0.0000
             ----------           ----------           ----------
 A(Tot)          0.5322               0.7193               1.5740    A(iso)=    0.9418
 Orientation: 
  X          -0.0003030            0.1154713           -0.9933108
  Y          -0.0006558            0.9933106            0.1154714
  Z           0.9999997            0.0006864           -0.0002253

Notes:  (1) The A matrix conforms to the "SAI" spin Hamiltonian convention.
        (2) Tensor is right-handed.

 Raw EFG matrix (all values in a.u.**-3):
 -----------------------------------
             0.1986      -0.2038      -0.0000
            -0.2038      -0.0241       0.0000
            -0.0000       0.0000      -0.1744

 V(El)       0.6092       0.8390      -1.4483
 V(Nuc)     -0.7542      -1.0135       1.7677
         ----------   ----------   ----------
 V(Tot)     -0.1450      -0.1744       0.3194 
 Orientation: 
  X       0.5101472   -0.0000000    0.8600871
  Y       0.8600871   -0.0000000   -0.5101472
  Z       0.0000000    1.0000000   -0.0000000

Note: Tensor is right-handed


 Quadrupole tensor eigenvalues (in MHz;Q= 0.0029 I=  1.0)
  e**2qQ            =     0.214484 MHz 
  e**2qQ/(4I*(2I-1))=     0.053621 MHz 
  eta               =     0.092219
  NOTE: the diagonal representation of the SH term I*Q*I = e**2qQ/(4I(2I-1))*[-(1-eta),-(1+eta),2]

 RHO(0)=      0.477951997 a.u.**-3

 -----------------------------------------------------------
 Nucleus   0Cu: A:ISTP=   63 I=  1.5 P=141.6005 MHz/au**3
                Q:ISTP=   63 I=  1.5 Q= -0.2200 barn     
 -----------------------------------------------------------
 Solving for nuclear perturbation:
Forming RHS of the CP-SCF equations         ... 
Calc. nucleus orbit integrals (SHARK)       ... done

Forming final perturbed densities           ... done
Transforming perturbed density to AO basis  ... done

 Raw HFC matrix (all values in MHz): 
 -----------------------------------
               185.9573               0.2857              -0.2906
                -3.1288             188.1967               0.1515
                 0.5958              -0.1220            -234.9689

 A(FC)          -1.9522              -1.9522              -1.9522
 A(SD)         163.1266             163.4028            -326.5294
 A(ORB+DIA)     25.1688              26.3597              93.5131    A(PC) =  48.3472
 A(ORB)         25.1687              26.3602              93.5145    A(PC) =  48.3478
 A(DIA)          0.0001              -0.0005              -0.0014    A(PC) =  -0.0006
             ----------           ----------           ----------
 A(Tot)        186.3432             187.8103            -234.9684    A(iso)=   46.3950
 Orientation: 
  X          -0.9922033            0.1246280           -0.0006907
  Y           0.1246278            0.9922035            0.0003084
  Z           0.0007238            0.0002199           -0.9999997

Notes:  (1) The A matrix conforms to the "SAI" spin Hamiltonian convention.
        (2) Tensor is right-handed.

 Raw EFG matrix (all values in a.u.**-3):
 -----------------------------------
             0.7142      -0.0000       0.0000
            -0.0000       1.1907       0.0000
             0.0000       0.0000      -1.9049

 V(El)      -0.0064       0.9811      -0.9747
 V(Nuc)      0.7206       0.2097      -0.9302
         ----------   ----------   ----------
 V(Tot)      0.7142       1.1907      -1.9049 
 Orientation: 
  X       1.0000000   -0.0000000   -0.0000000
  Y       0.0000000    1.0000000   -0.0000000
  Z       0.0000000    0.0000000    1.0000000

Note: Tensor is right-handed


 Quadrupole tensor eigenvalues (in MHz;Q=-0.2200 I=  1.5)
  e**2qQ            =    98.471140 MHz 
  e**2qQ/(4I*(2I-1))=     8.205928 MHz 
  eta               =     0.250154
  NOTE: the diagonal representation of the SH term I*Q*I = e**2qQ/(4I(2I-1))*[-(1-eta),-(1+eta),2]

 RHO(0)=  37601.866708416 a.u.**-3


--------------------------------------------------------------------------------
----------------------------------------------------------------------------
                           ORCA EULER ANGLE PROGRAM
----------------------------------------------------------------------------

Only g-tensor available        -->  using g-tensor as reference tensor

Reference tensor               ...  g

g-tensor ordering              ...  |g_min> --> |gx>
                                    |g_mid> --> |gy>
                                    |g_max> --> |gz>

A- and EFG-tensor ordering     ...  the axes |Ax>, |Qx>, |Ay>, etc. are assigned
                                    such that the Euler rotation is minimal. You
                                    can find the respective eigenvalues as Ax,
                                    EFGx, Ay, etc. in the tables below.
                                    The relation of |Ax>, |Ay>,  etc. to Amin, Amid, etc.
                                    (as printed in the ORCA EPR/NMR CALCULATION Output)
                                    is obtained in the detailed printout.

Euler rotation around          ...  z - y - z
   First rotation              -->  by alpha around z
   Second rotation             -->  by beta around y'
   Third rotation              -->  by gamma around z''
   Positive / Negative angle   -->  clockwise / counterclockwise rotation

Plot EFG-tensors                    (-)
Plot HFC-tensors                    (-)
Detailed Printout                   (-)

-------------------------------------------------------------------------
          Euler rotation of hyperfine tensor to g-tensor
-------------------------------------------------------------------------

-------------------------------------------------------------------
 Atom  |   Alpha    Beta    Gamma   |   Ax       Ay       Az 
       |          [degrees]         |           [MHz]         
-------------------------------------------------------------------
 12H       82.7      0.2   -115.7       3.31     0.47    -0.14
 14H      125.5      0.2   -109.8       0.48     3.30    -0.14
 15H      161.0      0.2   -118.0       0.72     1.57     0.53
 16H      147.7      0.2   -118.0       0.73     1.58     0.53
 20H      125.6      0.2   -109.9       0.48     3.30    -0.14
 22H       82.7      0.2   -115.7       3.31     0.47    -0.14
 23H      147.8      0.2   -118.1       0.73     1.58     0.53
 24H      161.5      0.2   -118.5       0.72     1.57     0.53
  0Cu     174.2      0.2   -130.7     187.81   186.34  -234.97
-------------------------------------------------------------------


-------------------------------------------------------------------------------
    Euler rotation of Electric Field Gradient (EFG) tensor to g-tensor
-------------------------------------------------------------------------------

-------------------------------------------------------------------
 Atom  |   Alpha    Beta    Gamma  |   EFGx     EFGy     EFGz
       |          [degrees]        |         [a.u.**-3]       
-------------------------------------------------------------------
 12H      154.7      0.2   -118.5      0.32    -0.15    -0.17
 14H      155.0      0.2   -118.5      0.32    -0.15    -0.17
 15H       95.5      0.2   -118.5      0.32    -0.14    -0.17
 16H      124.2      0.2   -118.5     -0.14     0.32    -0.17
 20H      155.0      0.2   -118.5      0.32    -0.15    -0.17
 22H      154.7      0.2   -118.5      0.32    -0.15    -0.17
 23H      124.2      0.2   -118.5     -0.14     0.32    -0.17
 24H       95.5      0.2   -118.5      0.32    -0.14    -0.17
  0Cu     154.8      0.2   -118.5      1.19     0.71    -1.90
-------------------------------------------------------------------


Maximum memory used throughout the entire EPRNMR-calculation: 554.9 MB
--------------------------------------------------------------------------
A system call failed during shared memory initialization that should
not have.  It is likely that your MPI job will now either abort or
experience performance degradation.

  Local host:  wapiti
  System call: unlink(2) /dev/shm/vader_segment.wapiti.1003.63230001.14
  Error:       No such file or directory (errno 2)
--------------------------------------------------------------------------
[wapiti:3306139] 63 more processes have sent help message help-opal-shmem-mmap.txt / sys call fail
[wapiti:3306139] Set MCA parameter "orte_base_help_aggregate" to 0 to see all help / error messages

Timings for individual modules:

Sum of individual times         ...    11349.974 sec (= 189.166 min)
GTO integral calculation        ...        9.589 sec (=   0.160 min)   0.1 %
Spin-Orbit-Coupling Matrices    ...       70.454 sec (=   1.174 min)   0.6 %
SCF iterations                  ...       68.001 sec (=   1.133 min)   0.6 %
EPR/NMR calculation             ...    11201.930 sec (= 186.699 min)  98.7 %
                             ****ORCA TERMINATED NORMALLY****
TOTAL RUN TIME: 0 days 3 hours 10 minutes 7 seconds 487 msec
