/home/timkrog/spindecoh/qubcand/geomopt/lit_structures/Cu_mid_master/two/single_point/two/DFT/M06L/CuSe/equil_geom
geom.inp
start.gbw
start.xyz
21128

                                 *****************
                                 * O   R   C   A *
                                 *****************

                                            #,                                       
                                            ###                                      
                                            ####                                     
                                            #####                                    
                                            ######                                   
                                           ########,                                 
                                     ,,################,,,,,                         
                               ,,#################################,,                 
                          ,,##########################################,,             
                       ,#########################################, ''#####,          
                    ,#############################################,,   '####,        
                  ,##################################################,,,,####,       
                ,###########''''           ''''###############################       
              ,#####''   ,,,,##########,,,,          '''####'''          '####       
            ,##' ,,,,###########################,,,                        '##       
           ' ,,###''''                  '''############,,,                           
         ,,##''                                '''############,,,,        ,,,,,,###''
      ,#''                                            '''#######################'''  
     '                                                          ''''####''''         
             ,#######,   #######,   ,#######,      ##                                
            ,#'     '#,  ##    ##  ,#'     '#,    #''#        ######   ,####,        
            ##       ##  ##   ,#'  ##            #'  '#       #        #'  '#        
            ##       ##  #######   ##           ,######,      #####,   #    #        
            '#,     ,#'  ##    ##  '#,     ,#' ,#      #,         ##   #,  ,#        
             '#######'   ##     ##  '#######'  #'      '#     #####' # '####'        



                  #######################################################
                  #                        -***-                        #
                  #          Department of theory and spectroscopy      #
                  #    Directorship and core code : Frank Neese         #
                  #        Max Planck Institute fuer Kohlenforschung    #
                  #                Kaiser Wilhelm Platz 1               #
                  #                 D-45470 Muelheim/Ruhr               #
                  #                      Germany                        #
                  #                                                     #
                  #                  All rights reserved                #
                  #                        -***-                        #
                  #######################################################


                         Program Version 5.0.4 -  RELEASE  -


 With contributions from (in alphabetic order):
   Daniel Aravena         : Magnetic Suceptibility
   Michael Atanasov       : Ab Initio Ligand Field Theory (pilot matlab implementation)
   Alexander A. Auer      : GIAO ZORA, VPT2 properties, NMR spectrum
   Ute Becker             : Parallelization
   Giovanni Bistoni       : ED, misc. LED, open-shell LED, HFLD
   Martin Brehm           : Molecular dynamics
   Dmytro Bykov           : SCF Hessian
   Vijay G. Chilkuri      : MRCI spin determinant printing, contributions to CSF-ICE
   Dipayan Datta          : RHF DLPNO-CCSD density
   Achintya Kumar Dutta   : EOM-CC, STEOM-CC
   Dmitry Ganyushin       : Spin-Orbit,Spin-Spin,Magnetic field MRCI
   Miquel Garcia          : C-PCM and meta-GGA Hessian, CC/C-PCM, Gaussian charge scheme
   Yang Guo               : DLPNO-NEVPT2, F12-NEVPT2, CIM, IAO-localization
   Andreas Hansen         : Spin unrestricted coupled pair/coupled cluster methods
   Benjamin Helmich-Paris : MC-RPA, TRAH-SCF, COSX integrals
   Lee Huntington         : MR-EOM, pCC
   Robert Izsak           : Overlap fitted RIJCOSX, COSX-SCS-MP3, EOM
   Marcus Kettner         : VPT2
   Christian Kollmar      : KDIIS, OOCD, Brueckner-CCSD(T), CCSD density, CASPT2, CASPT2-K
   Simone Kossmann        : Meta GGA functionals, TD-DFT gradient, OOMP2, MP2 Hessian
   Martin Krupicka        : Initial AUTO-CI
   Lucas Lang             : DCDCAS
   Marvin Lechner         : AUTO-CI (C++ implementation), FIC-MRCC
   Dagmar Lenk            : GEPOL surface, SMD
   Dimitrios Liakos       : Extrapolation schemes; Compound Job, initial MDCI parallelization
   Dimitrios Manganas     : Further ROCIS development; embedding schemes
   Dimitrios Pantazis     : SARC Basis sets
   Anastasios Papadopoulos: AUTO-CI, single reference methods and gradients
   Taras Petrenko         : DFT Hessian,TD-DFT gradient, ASA, ECA, R-Raman, ABS, FL, XAS/XES, NRVS
   Peter Pinski           : DLPNO-MP2, DLPNO-MP2 Gradient
   Christoph Reimann      : Effective Core Potentials
   Marius Retegan         : Local ZFS, SOC
   Christoph Riplinger    : Optimizer, TS searches, QM/MM, DLPNO-CCSD(T), (RO)-DLPNO pert. Triples
   Tobias Risthaus        : Range-separated hybrids, TD-DFT gradient, RPA, STAB
   Michael Roemelt        : Original ROCIS implementation
   Masaaki Saitow         : Open-shell DLPNO-CCSD energy and density
   Barbara Sandhoefer     : DKH picture change effects
   Avijit Sen             : IP-ROCIS
   Kantharuban Sivalingam : CASSCF convergence, NEVPT2, FIC-MRCI
   Bernardo de Souza      : ESD, SOC TD-DFT
   Georgi Stoychev        : AutoAux, RI-MP2 NMR, DLPNO-MP2 response
   Willem Van den Heuvel  : Paramagnetic NMR
   Boris Wezisla          : Elementary symmetry handling
   Frank Wennmohs         : Technical directorship


 We gratefully acknowledge several colleagues who have allowed us to
 interface, adapt or use parts of their codes:
   Stefan Grimme, W. Hujo, H. Kruse, P. Pracht,  : VdW corrections, initial TS optimization,
                  C. Bannwarth, S. Ehlert          DFT functionals, gCP, sTDA/sTD-DF
   Ed Valeev, F. Pavosevic, A. Kumar             : LibInt (2-el integral package), F12 methods
   Garnet Chan, S. Sharma, J. Yang, R. Olivares  : DMRG
   Ulf Ekstrom                                   : XCFun DFT Library
   Mihaly Kallay                                 : mrcc  (arbitrary order and MRCC methods)
   Jiri Pittner, Ondrej Demel                    : Mk-CCSD
   Frank Weinhold                                : gennbo (NPA and NBO analysis)
   Christopher J. Cramer and Donald G. Truhlar   : smd solvation model
   Lars Goerigk                                  : TD-DFT with DH, B97 family of functionals
   V. Asgeirsson, H. Jonsson                     : NEB implementation
   FAccTs GmbH                                   : IRC, NEB, NEB-TS, DLPNO-Multilevel, CI-OPT
                                                   MM, QMMM, 2- and 3-layer-ONIOM, Crystal-QMMM,
                                                   LR-CPCM, SF, NACMEs, symmetry and pop. for TD-DFT,
                                                   nearIR, NL-DFT gradient (VV10), updates on ESD,
                                                   ML-optimized integration grids
   S Lehtola, MJT Oliveira, MAL Marques          : LibXC Library
   Liviu Ungur et al                             : ANISO software


 Your calculation uses the libint2 library for the computation of 2-el integrals
 For citations please refer to: http://libint.valeyev.net

 Your ORCA version has been built with support for libXC version: 5.1.0
 For citations please refer to: https://tddft.org/programs/libxc/

 This ORCA versions uses:
   CBLAS   interface :  Fast vector & matrix operations
   LAPACKE interface :  Fast linear algebra routines
   SCALAPACK package :  Parallel linear algebra routines
   Shared memory     :  Shared parallel matrices
   BLAS/LAPACK       :  OpenBLAS 0.3.15  USE64BITINT DYNAMIC_ARCH NO_AFFINITY Prescott SINGLE_THREADED
        Core in use  :  Prescott
   Copyright (c) 2011-2014, The OpenBLAS Project




***************************************
The coordinates will be read from file: start.xyz
***************************************


XCFun DFT library Copyright 2009-2010 Ulf Ekstrom and contributors.
See http://admol.org/xcfun for more information.
This is free software; see the source code for copying conditions.
There is ABSOLUTELY NO WARRANTY; not even for MERCHANTABILITY or FITNESS FOR A PARTICULAR PURPOSE.
For details see the documentation.
Scientific users of this library should cite U. Ekstrom, L. Visscher, R. Bast, A. J. Thorvaldsen and K. Ruud;
J.Chem.Theor.Comp. 2010, DOI: 10.1021/ct100117s
XCFun Version 0.99 

================================================================================

----- Orbital basis set information -----
Your calculation utilizes the basis: ANO-RCC-DZP
   H, He:       P.-O. Widmark, P.-A. Malmqvist, and B. O. Roos, Theor. Chim. Acta 77, 291 (1990).
   s block:     B. O. Roos, V. Veryazov and P.-O. Widmark, Theor. Chem. Acc. 111, 345 (2004).
   p block:     B. O. Roos, R. Lindh, P.-A. Malmqvist, V. Veryazov, and P.-O. Widmark, J. Phys. Chem. A 108, 2851 (2004).
   d block:     B. O. Roos, R. Lindh, P.-A. Malmqvist, V. Veryazov, and P.-O. Widmark, J. Phys. Chem. A 109, 6575 (2005).
   actinides:   B. O. Roos, R. Lindh, P.-A. Malmqvist, V. Veryazov, and P.-O. Widmark, Chem. Phys. Letters 409, 295 (2005).
   lanthanides: B. O. Roos, R. Lindh, P.-A. Malmqvist, V. Veryazov, P.-O. Widmark and A. C. Borin, J. Phys. Chem. A 112, 11431 (2008).

The basis set includes element-specific modifications.

Your calculation utilizes the basis: ANO-RCC-TZP
   H, He:       P.-O. Widmark, P.-A. Malmqvist, and B. O. Roos, Theor. Chim. Acta 77, 291 (1990).
   s block:     B. O. Roos, V. Veryazov and P.-O. Widmark, Theor. Chem. Acc. 111, 345 (2004).
   p block:     B. O. Roos, R. Lindh, P.-A. Malmqvist, V. Veryazov, and P.-O. Widmark, J. Phys. Chem. A 108, 2851 (2004).
   d block:     B. O. Roos, R. Lindh, P.-A. Malmqvist, V. Veryazov, and P.-O. Widmark, J. Phys. Chem. A 109, 6575 (2005).
   actinides:   B. O. Roos, R. Lindh, P.-A. Malmqvist, V. Veryazov, and P.-O. Widmark, Chem. Phys. Letters 409, 295 (2005).
   lanthanides: B. O. Roos, R. Lindh, P.-A. Malmqvist, V. Veryazov, P.-O. Widmark and A. C. Borin, J. Phys. Chem. A 112, 11431 (2008).

----- AuxJ basis set information -----
Your calculation utilizes the AutoAux generation procedure.
  G. L. Stoychev, A. A. Auer, F. Neese, J. Chem. Theory Comput. 13, 554 (2017)

----- AuxC basis set information -----
Your calculation utilizes the AutoAux generation procedure.
  G. L. Stoychev, A. A. Auer, F. Neese, J. Chem. Theory Comput. 13, 554 (2017)

----- AuxJK basis set information -----
Your calculation utilizes the AutoAux generation procedure.
  G. L. Stoychev, A. A. Auer, F. Neese, J. Chem. Theory Comput. 13, 554 (2017)

================================================================================
                                        WARNINGS
                       Please study these warnings very carefully!
================================================================================


Removing linear dependencies from the Orbital basis set:
  S-ok PCD(Thresh=Auto)-ok done ( 0.674 sec)
  Dim=575 Nullspace=0 Removed 0 shells / 0 basis functions

Removing linear dependencies from the AuxJ basis set:
  V-ok PCD(Thresh=Auto)-ok done (54.791 sec)
  Dim=4792 Nullspace=2 Removed 2 shells / 2 basis functions

Removing linear dependencies from the AuxC basis set:
  V-ok PCD(Thresh=Auto)-ok done (54.818 sec)
  Dim=4792 Nullspace=2 Removed 2 shells / 2 basis functions

Removing linear dependencies from the AuxJK basis set:
  V-ok PCD(Thresh=Auto)-ok done (54.810 sec)
  Dim=4792 Nullspace=2 Removed 2 shells / 2 basis functions


WARNING: Found flag for RIJCOSX approximation but no HF exchange needed!
  ===> : RIJCOSX  will be disabled and Split-RI-J is turned on

WARNING: your system is open-shell and RHF/RKS was chosen
  ===> : WILL SWITCH to UHF/UKS


WARNING: Minnesota functionals are quite sensitive to the integration grid.
         see SE Wheeler, KN Houk, JCTC 2010, 6, 395,
             N Mardirossian, M Head-Gordon, JCTC 2016, 12, 4303.
         DEFGRID3 seems to be a minimum grid for reliable results with these functionals!
  ===> : Please increase the integration grid!


INFO   : the flag for use of the SHARK integral package has been found!

================================================================================
                                       INPUT FILE
================================================================================
NAME = geom.inp
|  1> ! RIJCOSX nofrozencore ReducedPop verytightscf
|  2> ! M06L ano-rcc-dzp autoaux
|  3> ! moread
|  4> %moinp "start.gbw"
|  5> %maxcore 7500
|  6> 
|  7> %basis
|  8> PCDTrimBas overlap
|  9> PCDTrimAuxJ Coulomb
| 10> PCDTrimAuxJK Coulomb
| 11> PCDTrimAuxC Coulomb
| 12> PCDThresh -1
| 13> end
| 14> 
| 15> %basis
| 16> newgto Cu "ano-rcc-tzp" end
| 17> newgto Se "ano-rcc-tzp" end
| 18> end
| 19> 
| 20> %pal
| 21> nprocs 64
| 22> end
| 23> 
| 24> % sym SymThresh 1e-2 end
| 25> * xyzfile -2 2 start.xyz
| 26> 
| 27> % eprnmr
| 28> gtensor true
| 29> Nuclei = all H {aiso,adip,aorb,fgrad,rho}
| 30> Nuclei = all Cu {aiso,adip,aorb,fgrad,rho}
| 31> end
| 32> 
| 33>                          ****END OF INPUT****
================================================================================

------------------------------------------------------------------------------
                            SYMMETRY HANDLING SETUP
------------------------------------------------------------------------------

------------------
SYMMETRY DETECTION
------------------
The point group will now be determined using a tolerance of 1.0000e-02.
Splitting atom subsets according to nuclear charge, mass and basis set.
Splitting atom subsets according to distance from the molecule's center.
Identifying relative distance patterns of the atoms.
Splitting atom subsets according to atoms' relative distance patterns.
Bring atoms of each subset into input order.
The molecule is planar.
The molecule has a center of inversion.
Analyzing the first atom subset for its symmetry.
The atoms in the selected subset form a 4-gon with alternating side lengths.
Testing point group D2h.
Success!
This point group has been found:    D2h
Largest non-degenerate subgroup:    D2h


Symmetry-perfected Cartesians (point group D2h):

Atom          Symmetry-perfected Cartesians (x, y, z; au)
  0       0.000000000000    0.000000000000    0.000000000000
  1       3.318300211944    3.002553909779    0.000000000000
  2       5.908491237170    1.310502566515   -0.000000000000
  3      -3.318300211944    3.002553909779   -0.000000000000
  4      -5.908491237170    1.310502566515    0.000000000000
  5       3.318300211944   -3.002553909779   -0.000000000000
  6       5.908491237170   -1.310502566515    0.000000000000
  7      -3.318300211944   -3.002553909779    0.000000000000
  8      -5.908491237170   -1.310502566515   -0.000000000000
  9      -8.256012150450   -2.492288680091    0.000000000000
 10      -8.256012150450    2.492288680091    0.000000000000
 11     -10.578489443617    1.311885993496    0.000000000000
 12      -8.240593280784    4.533262867225    0.000000000000
 13     -10.578489443617   -1.311885993496   -0.000000000000
 14      -8.240593280784   -4.533262867225    0.000000000000
 15     -12.306043843671    2.416044618295   -0.000000000000
 16     -12.306043843671   -2.416044618295    0.000000000000
 17       8.256012150450    2.492288680091    0.000000000000
 18       8.256012150450   -2.492288680091    0.000000000000
 19      10.578489443617    1.311885993496   -0.000000000000
 20       8.240593280784    4.533262867225    0.000000000000
 21      10.578489443617   -1.311885993496    0.000000000000
 22       8.240593280784   -4.533262867225    0.000000000000
 23      12.306043843671    2.416044618295    0.000000000000
 24      12.306043843671   -2.416044618295   -0.000000000000


-----------------------------------------------
SYMMETRY-PERFECTED CARTESIAN COORDINATES (A.U.)
-----------------------------------------------
Warning (ORCA_SYM): Coordinates were not cleaned so far!

------------------
SYMMETRY REDUCTION
------------------
ORCA supports only abelian point groups.
It is now checked, if the determined point group is supported:
Point Group ( D2h   ) is          ... supported

(Re)building abelian point group:
Creating Character Table          ... done
Making direct product table       ... done
Constructing symmetry operations  ... done
Creating atom transfer table      ... done
Creating asymmetric unit          ... done

----------------------
ASYMMETRIC UNIT IN D2h
----------------------
  #  AT     MASS              COORDS (A.U.)             BAS
   0 Cu  63.5500   0.00000000   0.00000000   0.00000000   0
   1 Se  78.9600   3.31830021   3.00255391   0.00000000   0
   2 C   12.0110   5.90849124   1.31050257  -0.00000000   0
   9 C   12.0110  -8.25601215  -2.49228868   0.00000000   0
  11 C   12.0110 -10.57848944   1.31188599   0.00000000   0
  12 H    1.0080  -8.24059328   4.53326287   0.00000000   0
  15 H    1.0080 -12.30604384   2.41604462  -0.00000000   0

----------------------
SYMMETRY ADAPTED BASIS
----------------------
The coefficients for the symmetry adapted linear combinations (SALCS)
of basis functions will now be computed:
Number of basis functions         ...   575
Preparing memory                  ... done
Constructing Gamma(red)           ... done
Reducing Gamma(red)               ... done
Constructing SALCs                ... done
Checking SALC integrity           ... nothing suspicious
Normalizing SALCs                 ... done

Storing the symmetry object:
Symmetry file                     ... geom.sym.tmp
Writing symmetry information      ... done

                       ****************************
                       * Single Point Calculation *
                       ****************************

---------------------------------
CARTESIAN COORDINATES (ANGSTROEM)
---------------------------------
  Cu     0.000000    0.000000    0.000000
  Se     1.755969    1.588883    0.000000
  C      3.126639    0.693488   -0.000000
  Se    -1.755969    1.588883   -0.000000
  C     -3.126639    0.693488    0.000000
  Se     1.755969   -1.588883   -0.000000
  C      3.126639   -0.693488    0.000000
  Se    -1.755969   -1.588883    0.000000
  C     -3.126639   -0.693488   -0.000000
  C     -4.368893   -1.318862    0.000000
  C     -4.368893    1.318862    0.000000
  C     -5.597896    0.694220    0.000000
  H     -4.360734    2.398899    0.000000
  C     -5.597896   -0.694220   -0.000000
  H     -4.360734   -2.398899    0.000000
  H     -6.512078    1.278516   -0.000000
  H     -6.512078   -1.278516    0.000000
  C      4.368893    1.318862    0.000000
  C      4.368893   -1.318862    0.000000
  C      5.597896    0.694220   -0.000000
  H      4.360734    2.398899    0.000000
  C      5.597896   -0.694220    0.000000
  H      4.360734   -2.398899    0.000000
  H      6.512078    1.278516    0.000000
  H      6.512078   -1.278516   -0.000000

----------------------------
CARTESIAN COORDINATES (A.U.)
----------------------------
  NO LB      ZA    FRAG     MASS         X           Y           Z
   0 Cu   29.0000    0    63.550    0.000000    0.000000    0.000000
   1 Se   34.0000    0    78.960    3.318300    3.002554    0.000000
   2 C     6.0000    0    12.011    5.908491    1.310503   -0.000000
   3 Se   34.0000    0    78.960   -3.318300    3.002554   -0.000000
   4 C     6.0000    0    12.011   -5.908491    1.310503    0.000000
   5 Se   34.0000    0    78.960    3.318300   -3.002554   -0.000000
   6 C     6.0000    0    12.011    5.908491   -1.310503    0.000000
   7 Se   34.0000    0    78.960   -3.318300   -3.002554    0.000000
   8 C     6.0000    0    12.011   -5.908491   -1.310503   -0.000000
   9 C     6.0000    0    12.011   -8.256012   -2.492289    0.000000
  10 C     6.0000    0    12.011   -8.256012    2.492289    0.000000
  11 C     6.0000    0    12.011  -10.578489    1.311886    0.000000
  12 H     1.0000    0     1.008   -8.240593    4.533263    0.000000
  13 C     6.0000    0    12.011  -10.578489   -1.311886   -0.000000
  14 H     1.0000    0     1.008   -8.240593   -4.533263    0.000000
  15 H     1.0000    0     1.008  -12.306044    2.416045   -0.000000
  16 H     1.0000    0     1.008  -12.306044   -2.416045    0.000000
  17 C     6.0000    0    12.011    8.256012    2.492289    0.000000
  18 C     6.0000    0    12.011    8.256012   -2.492289    0.000000
  19 C     6.0000    0    12.011   10.578489    1.311886   -0.000000
  20 H     1.0000    0     1.008    8.240593    4.533263    0.000000
  21 C     6.0000    0    12.011   10.578489   -1.311886    0.000000
  22 H     1.0000    0     1.008    8.240593   -4.533263    0.000000
  23 H     1.0000    0     1.008   12.306044    2.416045    0.000000
  24 H     1.0000    0     1.008   12.306044   -2.416045   -0.000000

--------------------------------
INTERNAL COORDINATES (ANGSTROEM)
--------------------------------
 Cu     0   0   0     0.000000000000     0.00000000     0.00000000
 Se     1   0   0     2.368116570375     0.00000000     0.00000000
 C      2   1   0     1.637213683659   104.70500731     0.00000000
 Se     1   2   3     2.368116579793    95.71945595   179.99999246
 C      4   1   2     1.637213684503   104.70500790   180.00000000
 Se     1   2   3     2.368116560490    84.28054987     0.00000000
 C      3   2   1     1.386976182179   123.15471655     0.00000000
 Se     1   2   3     2.368116551206   179.99999333     0.00000000
 C      5   4   1     1.386976176294   123.15471531     0.00000000
 C      9   5   4     1.390787364079   116.72154168   179.99999915
 C      5   4   1     1.390787340749   120.12374272   180.00000372
 C     11   5   4     1.378631219775   126.33643261   180.00000121
 H     11   5   4     1.080067832276   116.28869801     0.00000000
 C     10   9   5     1.378631201293   126.33643545     0.00000000
 H     10   9   5     1.080067831822   116.28869603   180.00000085
 H     12  11   5     1.084956937533   120.47349497   180.00000085
 H     14  10   9     1.084956940111   120.47349767   180.00000000
 C      3   2   1     1.390787320777   120.12374311   180.00000382
 C      7   3   2     1.390787277656   116.72154442   180.00000000
 C     18   3   2     1.378631155353   126.33643194   179.99999879
 H     18   3   2     1.080067858039   116.28870488     0.00000000
 C     19   7   3     1.378631122168   126.33643273     0.00000000
 H     19   7   3     1.080067848066   116.28870149   180.00000000
 H     20  18   3     1.084956262513   120.47346200   180.00000000
 H     22  19   7     1.084956234874   120.47345863   179.99999915

---------------------------
INTERNAL COORDINATES (A.U.)
---------------------------
 Cu     0   0   0     0.000000000000     0.00000000     0.00000000
 Se     1   0   0     4.475091771210     0.00000000     0.00000000
 C      2   1   0     3.093885484823   104.70500731     0.00000000
 Se     1   2   3     4.475091789007    95.71945595   179.99999246
 C      4   1   2     3.093885486419   104.70500790   180.00000000
 Se     1   2   3     4.475091752529    84.28054987     0.00000000
 C      3   2   1     2.621005138591   123.15471655     0.00000000
 Se     1   2   3     4.475091734985   179.99999333     0.00000000
 C      5   4   1     2.621005127469   123.15471531     0.00000000
 C      9   5   4     2.628207228627   116.72154168   179.99999915
 C      5   4   1     2.628207184540   120.12374272   180.00000372
 C     11   5   4     2.605235445049   126.33643261   180.00000121
 H     11   5   4     2.041032409059   116.28869801     0.00000000
 C     10   9   5     2.605235410122   126.33643545     0.00000000
 H     10   9   5     2.041032408202   116.28869603   180.00000085
 H     12  11   5     2.050271479035   120.47349497   180.00000085
 H     14  10   9     2.050271483907   120.47349767   180.00000000
 C      3   2   1     2.628207146798   120.12374311   180.00000382
 C      7   3   2     2.628207065313   116.72154442   180.00000000
 C     18   3   2     2.605235323309   126.33643194   179.99999879
 H     18   3   2     2.041032457744   116.28870488     0.00000000
 C     19   7   3     2.605235260598   126.33643273     0.00000000
 H     19   7   3     2.041032438898   116.28870149   180.00000000
 H     20  18   3     2.050270203433   120.47346200   180.00000000
 H     22  19   7     2.050270151202   120.47345863   179.99999915

---------------------
BASIS SET INFORMATION
---------------------
There are 4 groups of distinct atoms

 Group   1 Type Cu  : 126s75p30d12f4g contracted to 6s5p3d2f1g pattern {212121212121/1515151515/101010/66/4}
 Group   2 Type Se  : 120s85p33d8f2g contracted to 6s5p3d2f1g pattern {202020202020/1717171717/111111/44/2}
 Group   3 Type C   : 42s18p4d contracted to 3s2p1d pattern {141414/99/4}
 Group   4 Type H   : 24s8p3d contracted to 3s2p1d pattern {888/44/3}

Atom   0Cu   basis set group =>   1
Atom   1Se   basis set group =>   2
Atom   2C    basis set group =>   3
Atom   3Se   basis set group =>   2
Atom   4C    basis set group =>   3
Atom   5Se   basis set group =>   2
Atom   6C    basis set group =>   3
Atom   7Se   basis set group =>   2
Atom   8C    basis set group =>   3
Atom   9C    basis set group =>   3
Atom  10C    basis set group =>   3
Atom  11C    basis set group =>   3
Atom  12H    basis set group =>   4
Atom  13C    basis set group =>   3
Atom  14H    basis set group =>   4
Atom  15H    basis set group =>   4
Atom  16H    basis set group =>   4
Atom  17C    basis set group =>   3
Atom  18C    basis set group =>   3
Atom  19C    basis set group =>   3
Atom  20H    basis set group =>   4
Atom  21C    basis set group =>   3
Atom  22H    basis set group =>   4
Atom  23H    basis set group =>   4
Atom  24H    basis set group =>   4
---------------------------------
AUXILIARY/J BASIS SET INFORMATION
---------------------------------
There are 5 groups of distinct atoms

 Group   1 Type Cu  : 23s20p18d17f13g5h contracted to 23s20p18d17f13g5h pattern {11111111111111111111111/11111111111111111111/111111111111111111/11111111111111111/1111111111111/11111}
 Group   2 Type Se  : 22s20p18d18f14g6h contracted to 22s20p18d18f14g6h pattern {1111111111111111111111/11111111111111111111/111111111111111111/111111111111111111/11111111111111/111111}
 Group   3 Type C   : 17s14p13d4f contracted to 17s14p13d4f pattern {11111111111111111/11111111111111/1111111111111/1111}
 Group   4 Type C   : 16s14p13d4f contracted to 16s14p13d4f pattern {1111111111111111/11111111111111/1111111111111/1111}
 Group   5 Type H   : 12s5p4d3f contracted to 12s5p4d3f pattern {111111111111/11111/1111/111}

Atom   0Cu   basis set group =>   1
Atom   1Se   basis set group =>   2
Atom   2C    basis set group =>   3
Atom   3Se   basis set group =>   2
Atom   4C    basis set group =>   4
Atom   5Se   basis set group =>   2
Atom   6C    basis set group =>   4
Atom   7Se   basis set group =>   2
Atom   8C    basis set group =>   3
Atom   9C    basis set group =>   3
Atom  10C    basis set group =>   3
Atom  11C    basis set group =>   3
Atom  12H    basis set group =>   5
Atom  13C    basis set group =>   3
Atom  14H    basis set group =>   5
Atom  15H    basis set group =>   5
Atom  16H    basis set group =>   5
Atom  17C    basis set group =>   3
Atom  18C    basis set group =>   3
Atom  19C    basis set group =>   3
Atom  20H    basis set group =>   5
Atom  21C    basis set group =>   3
Atom  22H    basis set group =>   5
Atom  23H    basis set group =>   5
Atom  24H    basis set group =>   5
---------------------------------
AUXILIARY/C BASIS SET INFORMATION
---------------------------------
There are 5 groups of distinct atoms

 Group   1 Type Cu  : 23s20p18d17f13g5h contracted to 23s20p18d17f13g5h pattern {11111111111111111111111/11111111111111111111/111111111111111111/11111111111111111/1111111111111/11111}
 Group   2 Type Se  : 22s20p18d18f14g6h contracted to 22s20p18d18f14g6h pattern {1111111111111111111111/11111111111111111111/111111111111111111/111111111111111111/11111111111111/111111}
 Group   3 Type C   : 17s14p13d4f contracted to 17s14p13d4f pattern {11111111111111111/11111111111111/1111111111111/1111}
 Group   4 Type C   : 16s14p13d4f contracted to 16s14p13d4f pattern {1111111111111111/11111111111111/1111111111111/1111}
 Group   5 Type H   : 12s5p4d3f contracted to 12s5p4d3f pattern {111111111111/11111/1111/111}

Atom   0Cu   basis set group =>   1
Atom   1Se   basis set group =>   2
Atom   2C    basis set group =>   3
Atom   3Se   basis set group =>   2
Atom   4C    basis set group =>   4
Atom   5Se   basis set group =>   2
Atom   6C    basis set group =>   4
Atom   7Se   basis set group =>   2
Atom   8C    basis set group =>   3
Atom   9C    basis set group =>   3
Atom  10C    basis set group =>   3
Atom  11C    basis set group =>   3
Atom  12H    basis set group =>   5
Atom  13C    basis set group =>   3
Atom  14H    basis set group =>   5
Atom  15H    basis set group =>   5
Atom  16H    basis set group =>   5
Atom  17C    basis set group =>   3
Atom  18C    basis set group =>   3
Atom  19C    basis set group =>   3
Atom  20H    basis set group =>   5
Atom  21C    basis set group =>   3
Atom  22H    basis set group =>   5
Atom  23H    basis set group =>   5
Atom  24H    basis set group =>   5
----------------------------------
AUXILIARY/JK BASIS SET INFORMATION
----------------------------------
There are 5 groups of distinct atoms

 Group   1 Type Cu  : 23s20p18d17f13g5h contracted to 23s20p18d17f13g5h pattern {11111111111111111111111/11111111111111111111/111111111111111111/11111111111111111/1111111111111/11111}
 Group   2 Type Se  : 22s20p18d18f14g6h contracted to 22s20p18d18f14g6h pattern {1111111111111111111111/11111111111111111111/111111111111111111/111111111111111111/11111111111111/111111}
 Group   3 Type C   : 17s14p13d4f contracted to 17s14p13d4f pattern {11111111111111111/11111111111111/1111111111111/1111}
 Group   4 Type C   : 16s14p13d4f contracted to 16s14p13d4f pattern {1111111111111111/11111111111111/1111111111111/1111}
 Group   5 Type H   : 12s5p4d3f contracted to 12s5p4d3f pattern {111111111111/11111/1111/111}

Atom   0Cu   basis set group =>   1
Atom   1Se   basis set group =>   2
Atom   2C    basis set group =>   3
Atom   3Se   basis set group =>   2
Atom   4C    basis set group =>   4
Atom   5Se   basis set group =>   2
Atom   6C    basis set group =>   4
Atom   7Se   basis set group =>   2
Atom   8C    basis set group =>   3
Atom   9C    basis set group =>   3
Atom  10C    basis set group =>   3
Atom  11C    basis set group =>   3
Atom  12H    basis set group =>   5
Atom  13C    basis set group =>   3
Atom  14H    basis set group =>   5
Atom  15H    basis set group =>   5
Atom  16H    basis set group =>   5
Atom  17C    basis set group =>   3
Atom  18C    basis set group =>   3
Atom  19C    basis set group =>   3
Atom  20H    basis set group =>   5
Atom  21C    basis set group =>   3
Atom  22H    basis set group =>   5
Atom  23H    basis set group =>   5
Atom  24H    basis set group =>   5


           ************************************************************
           *        Program running with 64 parallel MPI-processes    *
           *              working on a common directory               *
           ************************************************************
------------------------------------------------------------------------------
                           ORCA GTO INTEGRAL CALCULATION
                           -- RI-GTO INTEGRALS CHOSEN --
------------------------------------------------------------------------------
------------------------------------------------------------------------------
                   ___                                                        
                  /   \      - P O W E R E D   B Y -                         
                 /     \                                                     
                 |  |  |   _    _      __       _____    __    __             
                 |  |  |  | |  | |    /  \     |  _  \  |  |  /  |          
                  \  \/   | |  | |   /    \    | | | |  |  | /  /          
                 / \  \   | |__| |  /  /\  \   | |_| |  |  |/  /          
                |  |  |   |  __  | /  /__\  \  |    /   |      \           
                |  |  |   | |  | | |   __   |  |    \   |  |\   \          
                \     /   | |  | | |  |  |  |  | |\  \  |  | \   \       
                 \___/    |_|  |_| |__|  |__|  |_| \__\ |__|  \__/        
                                                                              
                      - O R C A' S   B I G   F R I E N D -                    
                                      &                                       
                       - I N T E G R A L  F E E D E R -                       
                                                                              
 v1 FN, 2020, v2 2021                                                         
------------------------------------------------------------------------------


Reading SHARK input file geom.SHARKINP.tmp ... ok
----------------------
SHARK INTEGRAL PACKAGE
----------------------

Number of atoms                             ...     25
Number of basis functions                   ...    575
Number of shells                            ...    205
Maximum angular momentum                    ...      4
Integral batch strategy                     ... SHARK/LIBINT Hybrid
RI-J (if used) integral strategy            ... SPLIT-RIJ (Revised 2003 algorithm where possible)
Printlevel                                  ...      1
Contraction scheme used                     ... GENERAL contraction
Coulomb Range Separation                    ... NOT USED
Exchange Range Separation                   ... NOT USED
Finite Nucleus Model                        ... NOT USED
Auxiliary Coulomb fitting basis             ... AVAILABLE
   # of basis functions in Aux-J            ...   4790
   # of shells in Aux-J                     ...   1254
   Maximum angular momentum in Aux-J        ...      5
Auxiliary J/K fitting basis                 ... AVAILABLE
   # of basis functions in Aux-JK           ...   4790
   # of shells in Aux-JK                    ...   1254
   Maximum angular momentum in Aux-JK       ...      5
Auxiliary Correlation fitting basis         ... AVAILABLE
   # of basis functions in Aux-C            ...   4790
   # of shells in Aux-C                     ...   1254
   Maximum angular momentum in Aux-C        ...      5
Auxiliary 'external' fitting basis          ... NOT available
Integral threshold                          ...     1.000000e-12
Primitive cut-off                           ...     1.000000e-14
Primitive pair pre-selection threshold      ...     1.000000e-14

Calculating pre-screening integrals         ... done ( 30.8 sec) Dimension = 205
Organizing shell pair data                  ... done (  1.8 sec)
Shell pair information
Total number of shell pairs                 ...     21115
Shell pairs after pre-screening             ...         0
Total number of primitive shell pairs       ...   2631280
Primitive shell pairs kept                  ...    143771

Calculating one electron integrals          ... done (  0.0 sec)
Calculating RI/J V-Matrix + Cholesky decomp.... done (  1.2 sec)
Calculating RI/JK V-Matrix + Cholesky decomp... done (  1.2 sec)
Calculating RI/C V-Matrix + Cholesky decomp.... done (  1.2 sec)
Calculating Nuclear repulsion               ... done (  0.0 sec) ENN=   4054.801474183134 Eh

SHARK setup successfully completed in  36.9 seconds

Maximum memory used throughout the entire GTOINT-calculation: 308.0 MB


           ************************************************************
           *        Program running with 64 parallel MPI-processes    *
           *              working on a common directory               *
           ************************************************************
-------------------------------------------------------------------------------
                                 ORCA SCF
-------------------------------------------------------------------------------

------------
SCF SETTINGS
------------
Hamiltonian:
 Density Functional     Method          .... DFT(GTOs)
 Exchange Functional    Exchange        .... M06L
 Correlation Functional Correlation     .... M06L
 Gradients option       PostSCFGGA      .... off
   Density functional embedding theory  .... OFF
 RI-approximation to the Coulomb term is turned on
   Number of AuxJ basis functions       .... 4790


General Settings:
 Integral files         IntName         .... geom
 Hartree-Fock type      HFTyp           .... UHF
 Total Charge           Charge          ....   -2
 Multiplicity           Mult            ....    2
 Number of Electrons    NEL             ....  247
 Basis Dimension        Dim             ....  575
 Nuclear Repulsion      ENuc            ....   4054.8014741831 Eh

 Symmetry handling      UseSym         .... ON
 Point group                           .... D2h
 Used point group                      .... D2h
 Number of irreps                      .... 8
   Irrep   Ag has  103 symmetry adapted basis functions (ofs=   0)
   Irrep  B1g has   93 symmetry adapted basis functions (ofs= 103)
   Irrep  B2g has   46 symmetry adapted basis functions (ofs= 196)
   Irrep  B3g has   46 symmetry adapted basis functions (ofs= 242)
   Irrep   Au has   43 symmetry adapted basis functions (ofs= 288)
   Irrep  B1u has   50 symmetry adapted basis functions (ofs= 331)
   Irrep  B2u has   97 symmetry adapted basis functions (ofs= 381)
   Irrep  B3u has   97 symmetry adapted basis functions (ofs= 478)

Convergence Acceleration:
 DIIS                   CNVDIIS         .... on
   Start iteration      DIISMaxIt       ....    12
   Startup error        DIISStart       ....  0.200000
   # of expansion vecs  DIISMaxEq       ....     5
   Bias factor          DIISBfac        ....   1.050
   Max. coefficient     DIISMaxC        ....  10.000
 Trust-Rad. Augm. Hess. CNVTRAH         .... auto
   Auto Start mean grad. ratio tolernc. ....  1.125000
   Auto Start start iteration           ....     1
   Auto Start num. interpolation iter.  ....    10
   Max. Number of Micro iterations      ....    16
   Max. Number of Macro iterations      .... Maxiter - #DIIS iter
   Number of Davidson start vectors     ....     2
   Converg. threshold I  (grad. norm)   ....   2.000e-06
   Converg. threshold II (energy diff.) ....   1.000e-09
   Grad. Scal. Fac. for Micro threshold ....   0.100
   Minimum threshold for Micro iter.    ....   0.010
   NR start threshold (gradient norm)   ....   0.001
   Initial trust radius                 ....   0.400
   Minimum AH scaling param. (alpha)    ....   1.000
   Maximum AH scaling param. (alpha)    .... 1000.000
   Orbital update algorithm             .... Taylor
   White noise on init. David. guess    .... on
   Maximum white noise                  ....   0.010
   Quad. conv. algorithm                .... NR
 SOSCF                  CNVSOSCF        .... off
 Level Shifting         CNVShift        .... on
   Level shift para.    LevelShift      ....    0.2500
   Turn off err/grad.   ShiftErr        ....    0.0010
 Zerner damping         CNVZerner       .... off
 Static damping         CNVDamp         .... on
   Fraction old density DampFac         ....    0.7000
   Max. Damping (<1)    DampMax         ....    0.9800
   Min. Damping (>=0)   DampMin         ....    0.0000
   Turn off err/grad.   DampErr         ....    0.1000
 Fernandez-Rico         CNVRico         .... off

SCF Procedure:
 Maximum # iterations   MaxIter         ....   125
 SCF integral mode      SCFMode         .... Direct
   Integral package                     .... SHARK and LIBINT hybrid scheme
 Reset frequency        DirectResetFreq ....    20
 Integral Threshold     Thresh          ....  1.000e-12 Eh
 Primitive CutOff       TCut            ....  1.000e-14 Eh

Convergence Tolerance:
 Convergence Check Mode ConvCheckMode   .... Total+1el-Energy
 Convergence forced     ConvForced      .... 0
 Energy Change          TolE            ....  1.000e-09 Eh
 1-El. energy change                    ....  1.000e-06 Eh
 DIIS Error             TolErr          ....  1.000e-08


Diagonalization of the overlap matrix:
Smallest eigenvalue                        ... 1.465e-04
Time for diagonalization                   ...    0.122 sec
Threshold for overlap eigenvalues          ... 1.000e-08
Number of eigenvalues below threshold      ... 0
Time for construction of square roots      ...    0.195 sec
Producing symmetrization matrix            ... done (   0.097 sec)
Total time needed                          ...    0.418 sec

---------------------
INITIAL GUESS: MOREAD
---------------------
Guess MOs are being read from file: start.gbw
Input Geometry matches current geometry (good)
Input basis set matches current basis set (good)
Warning: Geometry matches/Basis set matches and symmetry is to be used
         We proceed in good trust that the input orbitals and irreps are correct
MOs were renormalized
MOs were reorthogonalized (Cholesky)
Irrep occupations for operator 0
    Ag -   27
   B1g -   21
   B2g -    8
   B3g -    7
    Au -    6
   B1u -    9
   B2u -   22
   B3u -   24
Irrep occupations for operator 1
    Ag -   27
   B1g -   20
   B2g -    8
   B3g -    7
    Au -    6
   B1u -    9
   B2u -   22
   B3u -   24
                      ------------------
                      INITIAL GUESS DONE (   0.5 sec)
                      ------------------
-------------------
DFT GRID GENERATION
-------------------

General Integration Accuracy     IntAcc      ... 4.388
Radial Grid Type                 RadialGrid  ... OptM3 with GC (2021)
Angular Grid (max. ang.)         AngularGrid ... 4 (Lebedev-302)
Angular grid pruning method      GridPruning ... 4 (adaptive)
Weight generation scheme         WeightScheme... Becke
Basis function cutoff            BFCut       ... 1.0000e-12
Integration weight cutoff        WCut        ... 1.0000e-14
Angular grids for H and He will be reduced by one unit
Partially contracted basis set               ... off
Rotationally invariant grid construction     ... off

Total number of grid points                  ...   155056
Total number of batches                      ...     2436
Average number of points per batch           ...       63
Average number of grid points per atom       ...     6202
Time for grid setup =    1.044 sec

--------------
SCF ITERATIONS
--------------
ITER       Energy         Delta-E        Max-DP      RMS-DP      [F,P]     Damp
               ***  Starting incremental Fock matrix formation  ***
  0 -11627.1474655980   0.000000000000 0.00000055  0.00000001  0.0000032 0.7000
  1 -11627.1474655979   0.000000000067 0.00000039  0.00000000  0.0000022 0.7000
                               ***Turning on DIIS***
  2 -11627.1474655986  -0.000000000706 0.00000091  0.00000001  0.0000016 0.0000
  3 -11627.1474655983   0.000000000349 0.00000140  0.00000000  0.0000002 0.0000
  4 -11627.1474655963   0.000000002028 0.00000115  0.00000000  0.0000011 0.0000
  5 -11627.1474655981  -0.000000001866 0.00000003  0.00000000  0.0000000 0.0000
  6 -11627.1474655975   0.000000000608 0.00000003  0.00000000  0.0000000 0.0000
                 **** Energy Check signals convergence ****

               *****************************************************
               *                     SUCCESS                       *
               *           SCF CONVERGED AFTER   7 CYCLES          *
               *****************************************************


----------------
TOTAL SCF ENERGY
----------------

Total Energy       :       -11627.14746560 Eh         -316390.76753 eV

Components:
Nuclear Repulsion  :         4054.80147418 Eh          110336.75752 eV
Electronic Energy  :       -15681.94893978 Eh         -426727.52506 eV
One Electron Energy:       -24384.84038844 Eh         -663545.24096 eV
Two Electron Energy:         8702.89144866 Eh          236817.71590 eV

Virial components:
Potential Energy   :       -24174.02241552 Eh         -657808.59227 eV
Kinetic Energy     :        12546.87494993 Eh          341417.82473 eV
Virial Ratio       :            1.92669669


DFT components:
N(Alpha)           :      124.000040679894 electrons
N(Beta)            :      123.000046798760 electrons
N(Total)           :      247.000087478654 electrons
E(XC)              :     -490.504803503899 Eh       
DFET-embed. en.    :        0.000000000000 Eh       

---------------
SCF CONVERGENCE
---------------

  Last Energy change         ...   -8.5493e-10  Tolerance :   1.0000e-09
  Last MAX-Density change    ...    4.7936e-09  Tolerance :   1.0000e-08
  Last RMS-Density change    ...    4.4885e-11  Tolerance :   1.0000e-09
  Last DIIS Error            ...    4.0307e-08  Tolerance :   1.0000e-08

================================================================================
                                        WARNING
Check your MOs and check whether a frozen core calculation is appropriate
MO 37 should be a Se s core orbital but seems to be delocalized with a C  p orbital (66.3% vs. 24.5%)
================================================================================
================================================================================
                                        WARNING
Check your MOs and check whether a frozen core calculation is appropriate
MO 38 should be a Se s core orbital but seems to be delocalized with a C  p orbital (68.2% vs. 24.9%)
================================================================================
================================================================================
                                        WARNING
Check your MOs and check whether a frozen core calculation is appropriate
MO 39 should be a Se s core orbital but seems to be delocalized with a C  p orbital (81.7% vs.  8.7%)
================================================================================
================================================================================
                                        WARNING
Check your MOs and check whether a frozen core calculation is appropriate
MO 40 should be a Se s core orbital but seems to be delocalized with a C  p orbital (82.7% vs.  8.5%)
================================================================================
================================================================================
                                        WARNING
Check your MOs and check whether a frozen core calculation is appropriate
MO 37 should be a Se s core orbital but seems to be delocalized with a C  p orbital (66.3% vs. 24.5%)
================================================================================
================================================================================
                                        WARNING
Check your MOs and check whether a frozen core calculation is appropriate
MO 38 should be a Se s core orbital but seems to be delocalized with a C  p orbital (68.2% vs. 24.9%)
================================================================================
================================================================================
                                        WARNING
Check your MOs and check whether a frozen core calculation is appropriate
MO 39 should be a Se s core orbital but seems to be delocalized with a C  p orbital (81.7% vs.  8.7%)
================================================================================
================================================================================
                                        WARNING
Check your MOs and check whether a frozen core calculation is appropriate
MO 40 should be a Se s core orbital but seems to be delocalized with a C  p orbital (82.7% vs.  8.5%)
================================================================================
             **** THE GBW FILE WAS UPDATED (geom.gbw) ****
             **** DENSITY geom.scfp WAS UPDATED ****
             **** ENERGY FILE WAS UPDATED (geom.en.tmp) ****
----------------------
UHF SPIN CONTAMINATION
----------------------

Warning: in a DFT calculation there is little theoretical justification to 
         calculate <S**2> as in Hartree-Fock theory. We will do it anyways
         but you should keep in mind that the values have only limited relevance

Expectation value of <S**2>     :     0.753766
Ideal value S*(S+1) for S=0.5   :     0.750000
Deviation                       :     0.003766

             **** THE GBW FILE WAS UPDATED (geom.gbw) ****
             **** DENSITY geom.scfp WAS UPDATED ****
----------------
ORBITAL ENERGIES
----------------
                 SPIN UP ORBITALS
  NO   OCC          E(Eh)            E(eV)    Irrep 
   0   1.0000    -443.561452    -12069.9207    1-B2u
   1   1.0000    -443.560363    -12069.8911    1-B1g
   2   1.0000    -443.546600    -12069.5166    1-Ag
   3   1.0000    -443.546539    -12069.5149    1-B3u
   4   1.0000    -318.186693     -8658.3001    2-Ag
   5   1.0000     -56.369931     -1533.9038    2-B2u
   6   1.0000     -56.369638     -1533.8958    2-B1g
   7   1.0000     -56.356834     -1533.5474    3-Ag
   8   1.0000     -56.356566     -1533.5401    2-B3u
   9   1.0000     -51.285907     -1395.5605    3-B1g
  10   1.0000     -51.285842     -1395.5587    3-B3u
  11   1.0000     -51.285838     -1395.5586    3-B2u
  12   1.0000     -51.285808     -1395.5578    4-Ag
  13   1.0000     -51.284543     -1395.5234    4-B1g
  14   1.0000     -51.284536     -1395.5232    4-B2u
  15   1.0000     -51.284498     -1395.5221    4-B3u
  16   1.0000     -51.284464     -1395.5212    5-Ag
  17   1.0000     -51.284107     -1395.5115    1-Au
  18   1.0000     -51.284077     -1395.5107    1-B3g
  19   1.0000     -51.284061     -1395.5102    1-B2g
  20   1.0000     -51.284026     -1395.5093    1-B1u
  21   1.0000     -38.027260     -1034.7744    6-Ag
  22   1.0000     -33.529326      -912.3794    5-B2u
  23   1.0000     -33.528535      -912.3578    5-B3u
  24   1.0000     -33.517309      -912.0524    2-B1u
  25   1.0000      -9.815673      -267.0981    6-B3u
  26   1.0000      -9.815673      -267.0980    7-Ag
  27   1.0000      -9.815225      -267.0858    5-B1g
  28   1.0000      -9.815225      -267.0858    6-B2u
  29   1.0000      -9.808212      -266.8950    7-B3u
  30   1.0000      -9.808205      -266.8948    8-Ag
  31   1.0000      -9.807759      -266.8827    6-B1g
  32   1.0000      -9.807756      -266.8826    7-B2u
  33   1.0000      -9.806179      -266.8397    8-B3u
  34   1.0000      -9.806179      -266.8397    9-Ag
  35   1.0000      -9.806177      -266.8397    7-B1g
  36   1.0000      -9.806176      -266.8396    8-B2u
  37   1.0000      -7.340851      -199.7547    9-B2u
  38   1.0000      -7.340806      -199.7535    8-B1g
  39   1.0000      -7.333495      -199.5546   10-Ag
  40   1.0000      -7.333380      -199.5514    9-B3u
  41   1.0000      -5.403669      -147.0413    9-B1g
  42   1.0000      -5.403641      -147.0406   10-B3u
  43   1.0000      -5.403628      -147.0402   10-B2u
  44   1.0000      -5.403619      -147.0399   11-Ag
  45   1.0000      -5.398350      -146.8966   10-B1g
  46   1.0000      -5.398346      -146.8965   11-B2u
  47   1.0000      -5.398331      -146.8961   11-B3u
  48   1.0000      -5.398313      -146.8956   12-Ag
  49   1.0000      -5.397991      -146.8868    2-Au
  50   1.0000      -5.397974      -146.8863    2-B3g
  51   1.0000      -5.397966      -146.8861    2-B2g
  52   1.0000      -5.397947      -146.8856    3-B1u
  53   1.0000      -4.021568      -109.4324   13-Ag
  54   1.0000      -2.541156       -69.1484   12-B2u
  55   1.0000      -2.540202       -69.1224   12-B3u
  56   1.0000      -2.516604       -68.4803    4-B1u
  57   1.0000      -1.742710       -47.4216   14-Ag
  58   1.0000      -1.742696       -47.4212   13-B3u
  59   1.0000      -1.742680       -47.4207   13-B2u
  60   1.0000      -1.742668       -47.4204   11-B1g
  61   1.0000      -1.739963       -47.3468   15-Ag
  62   1.0000      -1.739944       -47.3463   14-B3u
  63   1.0000      -1.739877       -47.3445   14-B2u
  64   1.0000      -1.739865       -47.3441   12-B1g
  65   1.0000      -1.739229       -47.3268    5-B1u
  66   1.0000      -1.739227       -47.3268    3-B2g
  67   1.0000      -1.739223       -47.3267    3-B3g
  68   1.0000      -1.739220       -47.3266    3-Au
  69   1.0000      -1.734872       -47.2083   16-Ag
  70   1.0000      -1.734864       -47.2080   15-B3u
  71   1.0000      -1.734849       -47.2076    6-B1u
  72   1.0000      -1.734847       -47.2076    4-B2g
  73   1.0000      -1.734825       -47.2070    4-Au
  74   1.0000      -1.734824       -47.2070    4-B3g
  75   1.0000      -1.734804       -47.2064   13-B1g
  76   1.0000      -1.734800       -47.2063   15-B2u
  77   1.0000      -0.602458       -16.3937   17-Ag
  78   1.0000      -0.602255       -16.3882   16-B3u
  79   1.0000      -0.521445       -14.1892   18-Ag
  80   1.0000      -0.520707       -14.1692   17-B3u
  81   1.0000      -0.499154       -13.5827   16-B2u
  82   1.0000      -0.498917       -13.5762   14-B1g
  83   1.0000      -0.412943       -11.2368   17-B2u
  84   1.0000      -0.411805       -11.2058   15-B1g
  85   1.0000      -0.383316       -10.4306   19-Ag
  86   1.0000      -0.378795       -10.3075   18-B3u
  87   1.0000      -0.320670        -8.7259   20-Ag
  88   1.0000      -0.318382        -8.6636   19-B3u
  89   1.0000      -0.287441        -7.8217   18-B2u
  90   1.0000      -0.284234        -7.7344   16-B1g
  91   1.0000      -0.230028        -6.2594   21-Ag
  92   1.0000      -0.223371        -6.0782   20-B3u
  93   1.0000      -0.200276        -5.4498   22-Ag
  94   1.0000      -0.199283        -5.4228   21-B3u
  95   1.0000      -0.170389        -4.6365   19-B2u
  96   1.0000      -0.165525        -4.5042   17-B1g
  97   1.0000      -0.138616        -3.7719   20-B2u
  98   1.0000      -0.136976        -3.7273   18-B1g
  99   1.0000      -0.136716        -3.7202   23-Ag
 100   1.0000      -0.130316        -3.5461    7-B1u
 101   1.0000      -0.130110        -3.5405    5-B2g
 102   1.0000      -0.110498        -3.0068   22-B3u
 103   1.0000      -0.082093        -2.2339   24-Ag
 104   1.0000      -0.071528        -1.9464   21-B2u
 105   1.0000      -0.065648        -1.7864   19-B1g
 106   1.0000      -0.062438        -1.6990   23-B3u
 107   1.0000      -0.048452        -1.3184    6-B2g
 108   1.0000      -0.047642        -1.2964    8-B1u
 109   1.0000      -0.033107        -0.9009    5-B3g
 110   1.0000      -0.029639        -0.8065   20-B1g
 111   1.0000      -0.029164        -0.7936   25-Ag
 112   1.0000      -0.026849        -0.7306    5-Au
 113   1.0000      -0.001569        -0.0427    6-B3g
 114   1.0000      -0.000761        -0.0207    7-B2g
 115   1.0000       0.000915         0.0249   26-Ag
 116   1.0000       0.019601         0.5334   27-Ag
 117   1.0000       0.021359         0.5812   24-B3u
 118   1.0000       0.041156         1.1199   22-B2u
 119   1.0000       0.055248         1.5034    6-Au
 120   1.0000       0.056294         1.5318    7-B3g
 121   1.0000       0.070724         1.9245    9-B1u
 122   1.0000       0.099626         2.7109    8-B2g
 123   1.0000       0.116562         3.1718   21-B1g
 124   0.0000       0.182211         4.9582   25-B3u
 125   0.0000       0.182347         4.9619   28-Ag
 126   0.0000       0.196228         5.3396   22-B1g
 127   0.0000       0.196658         5.3513   23-B2u
 128   0.0000       0.202124         5.5001   10-B1u
 129   0.0000       0.206742         5.6257    9-B2g
 130   0.0000       0.210312         5.7229    8-B3g
 131   0.0000       0.219064         5.9610    7-Au
 132   0.0000       0.221715         6.0332   26-B3u
 133   0.0000       0.222848         6.0640   29-Ag
 134   0.0000       0.238654         6.4941   24-B2u
 135   0.0000       0.239976         6.5301   23-B1g
 136   0.0000       0.261048         7.1035   30-Ag
 137   0.0000       0.284079         7.7302   31-Ag
 138   0.0000       0.296794         8.0762   11-B1u
 139   0.0000       0.305806         8.3214   25-B2u
 140   0.0000       0.316391         8.6094   32-Ag
 141   0.0000       0.316887         8.6229   27-B3u
 142   0.0000       0.320247         8.7144    9-B3g
 143   0.0000       0.334289         9.0965   12-B1u
 144   0.0000       0.336529         9.1574   28-B3u
 145   0.0000       0.336851         9.1662    8-Au
 146   0.0000       0.346213         9.4209   33-Ag
 147   0.0000       0.357277         9.7220   34-Ag
 148   0.0000       0.362794         9.8721   26-B2u
 149   0.0000       0.366921         9.9844   10-B2g
 150   0.0000       0.367370         9.9967   29-B3u
 151   0.0000       0.374267        10.1843   24-B1g
 152   0.0000       0.387811        10.5529   30-B3u
 153   0.0000       0.391743        10.6599   27-B2u
 154   0.0000       0.393375        10.7043   10-B3g
 155   0.0000       0.399138        10.8611   25-B1g
 156   0.0000       0.403749        10.9866   26-B1g
 157   0.0000       0.405251        11.0274   28-B2u
 158   0.0000       0.412374        11.2213    9-Au
 159   0.0000       0.419272        11.4090   35-Ag
 160   0.0000       0.419586        11.4175   27-B1g
 161   0.0000       0.423987        11.5373   13-B1u
 162   0.0000       0.425352        11.5744   11-B2g
 163   0.0000       0.440390        11.9836   29-B2u
 164   0.0000       0.443875        12.0785   31-B3u
 165   0.0000       0.447641        12.1809   36-Ag
 166   0.0000       0.463686        12.6175   11-B3g
 167   0.0000       0.468609        12.7515   12-B2g
 168   0.0000       0.472283        12.8515   32-B3u
 169   0.0000       0.475558        12.9406   30-B2u
 170   0.0000       0.476422        12.9641   37-Ag
 171   0.0000       0.482581        13.1317   28-B1g
 172   0.0000       0.493252        13.4221   31-B2u
 173   0.0000       0.502521        13.6743   14-B1u
 174   0.0000       0.504950        13.7404   10-Au
 175   0.0000       0.511948        13.9308   33-B3u
 176   0.0000       0.518605        14.1120   38-Ag
 177   0.0000       0.525949        14.3118   29-B1g
 178   0.0000       0.536396        14.5961   12-B3g
 179   0.0000       0.537081        14.6147   34-B3u
 180   0.0000       0.546878        14.8813   13-B2g
 181   0.0000       0.551740        15.0136   32-B2u
 182   0.0000       0.561689        15.2843   39-Ag
 183   0.0000       0.567650        15.4465   35-B3u
 184   0.0000       0.568307        15.4644   30-B1g
 185   0.0000       0.568602        15.4724   15-B1u
 186   0.0000       0.572005        15.5650   40-Ag
 187   0.0000       0.590075        16.0567   36-B3u
 188   0.0000       0.598297        16.2805   11-Au
 189   0.0000       0.605281        16.4705   31-B1g
 190   0.0000       0.612445        16.6655   41-Ag
 191   0.0000       0.613327        16.6895   13-B3g
 192   0.0000       0.630343        17.1525   12-Au
 193   0.0000       0.652837        17.7646   33-B2u
 194   0.0000       0.653487        17.7823   16-B1u
 195   0.0000       0.657615        17.8946   14-B2g
 196   0.0000       0.661569        18.0022   14-B3g
 197   0.0000       0.671340        18.2681   37-B3u
 198   0.0000       0.675527        18.3820   42-Ag
 199   0.0000       0.694049        18.8860   34-B2u
 200   0.0000       0.700199        19.0534   17-B1u
 201   0.0000       0.706069        19.2131   35-B2u
 202   0.0000       0.706079        19.2134   32-B1g
 203   0.0000       0.708283        19.2734   43-Ag
 204   0.0000       0.725411        19.7394   15-B2g
 205   0.0000       0.731187        19.8966   13-Au
 206   0.0000       0.735975        20.0269   33-B1g
 207   0.0000       0.739554        20.1243   38-B3u
 208   0.0000       0.751762        20.4565   39-B3u
 209   0.0000       0.754932        20.5427   44-Ag
 210   0.0000       0.765846        20.8397   36-B2u
 211   0.0000       0.804651        21.8957   40-B3u
 212   0.0000       0.808065        21.9886   34-B1g
 213   0.0000       0.812137        22.0994   45-Ag
 214   0.0000       0.812696        22.1146   18-B1u
 215   0.0000       0.815266        22.1845   37-B2u
 216   0.0000       0.832645        22.6574   35-B1g
 217   0.0000       0.833490        22.6804   38-B2u
 218   0.0000       0.866764        23.5859   39-B2u
 219   0.0000       0.867841        23.6152   41-B3u
 220   0.0000       0.867853        23.6155   16-B2g
 221   0.0000       0.870792        23.6954   46-Ag
 222   0.0000       0.881397        23.9840   15-B3g
 223   0.0000       0.886078        24.1114   47-Ag
 224   0.0000       0.887806        24.1584   36-B1g
 225   0.0000       0.892768        24.2935   17-B2g
 226   0.0000       0.903450        24.5841   40-B2u
 227   0.0000       0.903947        24.5976   42-B3u
 228   0.0000       0.904571        24.6146   37-B1g
 229   0.0000       0.911084        24.7918   48-Ag
 230   0.0000       0.913605        24.8605   19-B1u
 231   0.0000       0.920257        25.0415   38-B1g
 232   0.0000       0.929437        25.2913   20-B1u
 233   0.0000       0.953585        25.9484   43-B3u
 234   0.0000       0.954278        25.9672   41-B2u
 235   0.0000       0.962727        26.1971   49-Ag
 236   0.0000       0.963444        26.2166   18-B2g
 237   0.0000       0.967340        26.3227   50-Ag
 238   0.0000       0.968170        26.3453   44-B3u
 239   0.0000       0.968422        26.3521   16-B3g
 240   0.0000       0.971268        26.4296   39-B1g
 241   0.0000       0.980452        26.6795   42-B2u
 242   0.0000       0.983455        26.7612   14-Au
 243   0.0000       0.996083        27.1048   43-B2u
 244   0.0000       0.999083        27.1864   40-B1g
 245   0.0000       1.000817        27.2336   21-B1u
 246   0.0000       1.006550        27.3896   15-Au
 247   0.0000       1.018077        27.7033   45-B3u
 248   0.0000       1.029019        28.0010   51-Ag
 249   0.0000       1.030884        28.0518   44-B2u
 250   0.0000       1.033098        28.1120   17-B3g
 251   0.0000       1.046163        28.4675   18-B3g
 252   0.0000       1.054705        28.7000   16-Au
 253   0.0000       1.054819        28.7031   41-B1g
 254   0.0000       1.057614        28.7791   22-B1u
 255   0.0000       1.064935        28.9784   46-B3u
 256   0.0000       1.074947        29.2508   19-B2g
 257   0.0000       1.083979        29.4966   20-B2g
 258   0.0000       1.086631        29.5687   52-Ag
 259   0.0000       1.086872        29.5753   42-B1g
 260   0.0000       1.106151        30.0999   45-B2u
 261   0.0000       1.117734        30.4151   47-B3u
 262   0.0000       1.129865        30.7452   23-B1u
 263   0.0000       1.151602        31.3367   53-Ag
 264   0.0000       1.152546        31.3624   48-B3u
 265   0.0000       1.166456        31.7409   21-B2g
 266   0.0000       1.179658        32.1001   43-B1g
 267   0.0000       1.188785        32.3485   19-B3g
 268   0.0000       1.211814        32.9751   17-Au
 269   0.0000       1.223969        33.3059   20-B3g
 270   0.0000       1.227621        33.4053   24-B1u
 271   0.0000       1.231692        33.5160   54-Ag
 272   0.0000       1.249799        34.0088   44-B1g
 273   0.0000       1.252244        34.0753   49-B3u
 274   0.0000       1.254776        34.1442   22-B2g
 275   0.0000       1.270671        34.5767   46-B2u
 276   0.0000       1.280969        34.8569   25-B1u
 277   0.0000       1.281149        34.8618   18-Au
 278   0.0000       1.298095        35.3230   47-B2u
 279   0.0000       1.307308        35.5737   50-B3u
 280   0.0000       1.317437        35.8493   19-Au
 281   0.0000       1.327214        36.1153   26-B1u
 282   0.0000       1.336001        36.3544   55-Ag
 283   0.0000       1.355413        36.8827   48-B2u
 284   0.0000       1.364476        37.1293   45-B1g
 285   0.0000       1.369977        37.2790   23-B2g
 286   0.0000       1.373168        37.3658   56-Ag
 287   0.0000       1.394859        37.9560   51-B3u
 288   0.0000       1.408856        38.3369   21-B3g
 289   0.0000       1.427372        38.8408   46-B1g
 290   0.0000       1.449233        39.4356   20-Au
 291   0.0000       1.453364        39.5480   49-B2u
 292   0.0000       1.453495        39.5516   24-B2g
 293   0.0000       1.466672        39.9102   57-Ag
 294   0.0000       1.493144        40.6305   47-B1g
 295   0.0000       1.493384        40.6370   27-B1u
 296   0.0000       1.493821        40.6489   52-B3u
 297   0.0000       1.504527        40.9403   25-B2g
 298   0.0000       1.524426        41.4817   22-B3g
 299   0.0000       1.535734        41.7895   50-B2u
 300   0.0000       1.546839        42.0916   21-Au
 301   0.0000       1.555421        42.3252   58-Ag
 302   0.0000       1.564464        42.5712   51-B2u
 303   0.0000       1.566716        42.6325   28-B1u
 304   0.0000       1.569874        42.7184   48-B1g
 305   0.0000       1.571248        42.7558   23-B3g
 306   0.0000       1.581702        43.0403   59-Ag
 307   0.0000       1.592176        43.3253   53-B3u
 308   0.0000       1.617915        44.0257   24-B3g
 309   0.0000       1.655630        45.0520   22-Au
 310   0.0000       1.687065        45.9074   60-Ag
 311   0.0000       1.695631        46.1405   54-B3u
 312   0.0000       1.695883        46.1473   49-B1g
 313   0.0000       1.696553        46.1656   26-B2g
 314   0.0000       1.734399        47.1954   52-B2u
 315   0.0000       1.737091        47.2686   61-Ag
 316   0.0000       1.742699        47.4213   29-B1u
 317   0.0000       1.748213        47.5713   50-B1g
 318   0.0000       1.749032        47.5936   53-B2u
 319   0.0000       1.765655        48.0459   55-B3u
 320   0.0000       1.771065        48.1931   62-Ag
 321   0.0000       1.772959        48.2447   30-B1u
 322   0.0000       1.777723        48.3743   23-Au
 323   0.0000       1.780158        48.4406   56-B3u
 324   0.0000       1.787029        48.6275   27-B2g
 325   0.0000       1.815961        49.4148   51-B1g
 326   0.0000       1.825819        49.6831   63-Ag
 327   0.0000       1.828501        49.7560   57-B3u
 328   0.0000       1.834552        49.9207   64-Ag
 329   0.0000       1.839306        50.0501   25-B3g
 330   0.0000       1.843394        50.1613   58-B3u
 331   0.0000       1.858705        50.5779   24-Au
 332   0.0000       1.865266        50.7565   28-B2g
 333   0.0000       1.873071        50.9689   54-B2u
 334   0.0000       1.876843        51.0715   26-B3g
 335   0.0000       1.889569        51.4178   59-B3u
 336   0.0000       1.891332        51.4657   31-B1u
 337   0.0000       1.897260        51.6271   65-Ag
 338   0.0000       1.900570        51.7171   60-B3u
 339   0.0000       1.923101        52.3302   55-B2u
 340   0.0000       1.925569        52.3974   52-B1g
 341   0.0000       1.926694        52.4280   27-B3g
 342   0.0000       1.952275        53.1241   56-B2u
 343   0.0000       1.956132        53.2291   61-B3u
 344   0.0000       1.963652        53.4337   25-Au
 345   0.0000       1.975848        53.7656   29-B2g
 346   0.0000       1.980336        53.8877   66-Ag
 347   0.0000       1.982686        53.9516   53-B1g
 348   0.0000       1.985977        54.0412   57-B2u
 349   0.0000       2.005420        54.5703   54-B1g
 350   0.0000       2.007936        54.6387   28-B3g
 351   0.0000       2.019266        54.9470   32-B1u
 352   0.0000       2.040013        55.5116   67-Ag
 353   0.0000       2.040828        55.5338   62-B3u
 354   0.0000       2.042900        55.5901   30-B2g
 355   0.0000       2.060835        56.0782   55-B1g
 356   0.0000       2.070187        56.3327   58-B2u
 357   0.0000       2.080062        56.6014   68-Ag
 358   0.0000       2.082642        56.6716   56-B1g
 359   0.0000       2.087687        56.8089   26-Au
 360   0.0000       2.087722        56.8098   63-B3u
 361   0.0000       2.099591        57.1328   33-B1u
 362   0.0000       2.102783        57.2196   59-B2u
 363   0.0000       2.110087        57.4184   31-B2g
 364   0.0000       2.127396        57.8894   29-B3g
 365   0.0000       2.132487        58.0279   57-B1g
 366   0.0000       2.132640        58.0321   69-Ag
 367   0.0000       2.136945        58.1492   60-B2u
 368   0.0000       2.137957        58.1768   30-B3g
 369   0.0000       2.138036        58.1789   64-B3u
 370   0.0000       2.152252        58.5658   34-B1u
 371   0.0000       2.160245        58.7832   32-B2g
 372   0.0000       2.160822        58.7990   58-B1g
 373   0.0000       2.163396        58.8690   35-B1u
 374   0.0000       2.174037        59.1586   61-B2u
 375   0.0000       2.184602        59.4461   62-B2u
 376   0.0000       2.186884        59.5081   31-B3g
 377   0.0000       2.187846        59.5343   59-B1g
 378   0.0000       2.190943        59.6186   27-Au
 379   0.0000       2.197800        59.8052   28-Au
 380   0.0000       2.206154        60.0325   70-Ag
 381   0.0000       2.210067        60.1390   65-B3u
 382   0.0000       2.217140        60.3314   71-Ag
 383   0.0000       2.226477        60.5855   29-Au
 384   0.0000       2.226545        60.5874   60-B1g
 385   0.0000       2.237035        60.8728   63-B2u
 386   0.0000       2.243228        61.0413   72-Ag
 387   0.0000       2.248547        61.1861   66-B3u
 388   0.0000       2.248879        61.1951   64-B2u
 389   0.0000       2.257806        61.4380   61-B1g
 390   0.0000       2.265852        61.6570   33-B2g
 391   0.0000       2.266296        61.6691   67-B3u
 392   0.0000       2.270806        61.7918   32-B3g
 393   0.0000       2.276010        61.9334   36-B1u
 394   0.0000       2.286512        62.2192   73-Ag
 395   0.0000       2.288812        62.2817   68-B3u
 396   0.0000       2.309915        62.8560   30-Au
 397   0.0000       2.325263        63.2736   74-Ag
 398   0.0000       2.337033        63.5939   34-B2g
 399   0.0000       2.337369        63.6031   69-B3u
 400   0.0000       2.339796        63.6691   37-B1u
 401   0.0000       2.346384        63.8484   65-B2u
 402   0.0000       2.360793        64.2404   75-Ag
 403   0.0000       2.363728        64.3203   62-B1g
 404   0.0000       2.365204        64.3605   35-B2g
 405   0.0000       2.373403        64.5836   66-B2u
 406   0.0000       2.378338        64.7179   38-B1u
 407   0.0000       2.397079        65.2278   67-B2u
 408   0.0000       2.405746        65.4637   70-B3u
 409   0.0000       2.405937        65.4689   33-B3g
 410   0.0000       2.406356        65.4803   31-Au
 411   0.0000       2.412408        65.6449   63-B1g
 412   0.0000       2.412537        65.6485   32-Au
 413   0.0000       2.413341        65.6703   76-Ag
 414   0.0000       2.424941        65.9860   64-B1g
 415   0.0000       2.442568        66.4657   71-B3u
 416   0.0000       2.459249        66.9196   39-B1u
 417   0.0000       2.491254        67.7905   36-B2g
 418   0.0000       2.492601        67.8271   68-B2u
 419   0.0000       2.521678        68.6184   34-B3g
 420   0.0000       2.527112        68.7662   77-Ag
 421   0.0000       2.529845        68.8406   40-B1u
 422   0.0000       2.549540        69.3765   33-Au
 423   0.0000       2.573160        70.0193   65-B1g
 424   0.0000       2.601056        70.7783   72-B3u
 425   0.0000       2.607081        70.9423   66-B1g
 426   0.0000       2.609470        71.0073   78-Ag
 427   0.0000       2.615830        71.1803   69-B2u
 428   0.0000       2.628464        71.5241   37-B2g
 429   0.0000       2.631835        71.6159   73-B3u
 430   0.0000       2.661413        72.4207   35-B3g
 431   0.0000       2.678278        72.8797   74-B3u
 432   0.0000       2.695621        73.3516   67-B1g
 433   0.0000       2.699771        73.4645   79-Ag
 434   0.0000       2.721150        74.0462   80-Ag
 435   0.0000       2.729728        74.2797   70-B2u
 436   0.0000       2.764852        75.2355   34-Au
 437   0.0000       2.767087        75.2963   68-B1g
 438   0.0000       2.786863        75.8344   75-B3u
 439   0.0000       2.790008        75.9200   81-Ag
 440   0.0000       2.796228        76.0892   36-B3g
 441   0.0000       2.796755        76.1036   38-B2g
 442   0.0000       2.797123        76.1136   41-B1u
 443   0.0000       2.817891        76.6787   35-Au
 444   0.0000       2.830830        77.0308   71-B2u
 445   0.0000       2.831381        77.0458   69-B1g
 446   0.0000       2.834099        77.1198   76-B3u
 447   0.0000       2.843666        77.3801   37-B3g
 448   0.0000       2.872963        78.1773   38-B3g
 449   0.0000       2.877366        78.2971   72-B2u
 450   0.0000       2.878807        78.3363   39-B2g
 451   0.0000       2.883536        78.4650   36-Au
 452   0.0000       2.887607        78.5758   70-B1g
 453   0.0000       2.895129        78.7805   82-Ag
 454   0.0000       2.906830        79.0989   73-B2u
 455   0.0000       2.959094        80.5210   77-B3u
 456   0.0000       2.961761        80.5936   83-Ag
 457   0.0000       2.994667        81.4890   71-B1g
 458   0.0000       2.995962        81.5243   39-B3g
 459   0.0000       2.997843        81.5755   37-Au
 460   0.0000       3.008568        81.8673   74-B2u
 461   0.0000       3.012937        81.9862   78-B3u
 462   0.0000       3.013946        82.0136   84-Ag
 463   0.0000       3.031706        82.4969   42-B1u
 464   0.0000       3.045746        82.8790   72-B1g
 465   0.0000       3.049733        82.9874   75-B2u
 466   0.0000       3.066002        83.4302   40-B2g
 467   0.0000       3.070527        83.5533   43-B1u
 468   0.0000       3.073991        83.6476   79-B3u
 469   0.0000       3.116799        84.8124   73-B1g
 470   0.0000       3.127316        85.0986   76-B2u
 471   0.0000       3.129222        85.1505   85-Ag
 472   0.0000       3.132484        85.2392   80-B3u
 473   0.0000       3.142114        85.5013   41-B2g
 474   0.0000       3.210778        87.3697   44-B1u
 475   0.0000       3.214997        87.4845   81-B3u
 476   0.0000       3.217747        87.5593   77-B2u
 477   0.0000       3.242771        88.2403   86-Ag
 478   0.0000       3.264475        88.8309   82-B3u
 479   0.0000       3.300273        89.8050   74-B1g
 480   0.0000       3.310005        90.0698   78-B2u
 481   0.0000       3.357733        91.3686   38-Au
 482   0.0000       3.358127        91.3793   87-Ag
 483   0.0000       3.358213        91.3816   40-B3g
 484   0.0000       3.359713        91.4224   75-B1g
 485   0.0000       3.385356        92.1202   79-B2u
 486   0.0000       3.392181        92.3059   76-B1g
 487   0.0000       3.393701        92.3473   83-B3u
 488   0.0000       3.407120        92.7124   88-Ag
 489   0.0000       3.437214        93.5314   45-B1u
 490   0.0000       3.438401        93.5636   42-B2g
 491   0.0000       3.439426        93.5915   46-B1u
 492   0.0000       3.456027        94.0433   84-B3u
 493   0.0000       3.458349        94.1065   39-Au
 494   0.0000       3.461363        94.1885   80-B2u
 495   0.0000       3.462434        94.2176   41-B3g
 496   0.0000       3.543487        96.4232   89-Ag
 497   0.0000       3.560142        96.8764   85-B3u
 498   0.0000       3.568183        97.0952   77-B1g
 499   0.0000       3.594790        97.8192   40-Au
 500   0.0000       3.608200        98.1841   81-B2u
 501   0.0000       3.618542        98.4655   90-Ag
 502   0.0000       3.624690        98.6328   82-B2u
 503   0.0000       3.627098        98.6984   78-B1g
 504   0.0000       3.646889        99.2369   86-B3u
 505   0.0000       3.686819       100.3235   42-B3g
 506   0.0000       3.688905       100.3802   41-Au
 507   0.0000       3.741331       101.8068   83-B2u
 508   0.0000       3.744146       101.8834   87-B3u
 509   0.0000       3.748194       101.9936   79-B1g
 510   0.0000       3.751118       102.0731   91-Ag
 511   0.0000       3.805874       103.5631   47-B1u
 512   0.0000       3.805878       103.5632   43-B2g
 513   0.0000       3.814488       103.7975   80-B1g
 514   0.0000       3.817466       103.8785   84-B2u
 515   0.0000       3.854476       104.8856   92-Ag
 516   0.0000       3.863387       105.1281   81-B1g
 517   0.0000       3.899204       106.1027   88-B3u
 518   0.0000       3.968935       108.0002   85-B2u
 519   0.0000       4.028300       109.6156   43-B3g
 520   0.0000       4.029365       109.6446   42-Au
 521   0.0000       4.044175       110.0476   82-B1g
 522   0.0000       4.066888       110.6657   86-B2u
 523   0.0000       4.129462       112.3684   83-B1g
 524   0.0000       4.159630       113.1893   87-B2u
 525   0.0000       4.166316       113.3712   93-Ag
 526   0.0000       4.180973       113.7701   89-B3u
 527   0.0000       4.241131       115.4070   84-B1g
 528   0.0000       4.250034       115.6493   88-B2u
 529   0.0000       4.422474       120.3416   94-Ag
 530   0.0000       4.431272       120.5810   90-B3u
 531   0.0000       4.570900       124.3805   91-B3u
 532   0.0000       4.585256       124.7712   95-Ag
 533   0.0000       4.650723       126.5526   96-Ag
 534   0.0000       4.660616       126.8218   85-B1g
 535   0.0000       4.692088       127.6782   92-B3u
 536   0.0000       4.715228       128.3079   89-B2u
 537   0.0000       4.842510       131.7714   86-B1g
 538   0.0000       4.850051       131.9766   90-B2u
 539   0.0000       5.010110       136.3320   91-B2u
 540   0.0000       5.057898       137.6324   87-B1g
 541   0.0000       5.182049       141.0107   88-B1g
 542   0.0000       5.201540       141.5411   92-B2u
 543   0.0000       5.201677       141.5448   97-Ag
 544   0.0000       5.231024       142.3434   93-B3u
 545   0.0000       5.669035       154.2623   93-B2u
 546   0.0000       5.685975       154.7232   89-B1g
 547   0.0000       6.277320       170.8146   44-B3g
 548   0.0000       6.413535       174.5212   44-B2g
 549   0.0000       6.750760       183.6975   98-Ag
 550   0.0000       6.810145       185.3135   48-B1u
 551   0.0000       7.435726       202.3364   99-Ag
 552   0.0000       8.487911       230.9678   94-B3u
 553   0.0000       8.500657       231.3146   90-B1g
 554   0.0000       8.911959       242.5067  100-Ag
 555   0.0000       8.945994       243.4329   94-B2u
 556   0.0000       9.292357       252.8579   95-B3u
 557   0.0000      10.534962       286.6709   49-B1u
 558   0.0000      10.797707       293.8205   95-B2u
 559   0.0000      10.908001       296.8218   50-B1u
 560   0.0000      10.949168       297.9420   96-B3u
 561   0.0000      11.105506       302.1962   43-Au
 562   0.0000      11.251566       306.1707   45-B3g
 563   0.0000      11.260289       306.4080  101-Ag
 564   0.0000      11.261403       306.4384   45-B2g
 565   0.0000      11.278516       306.9040  102-Ag
 566   0.0000      11.348536       308.8094   46-B2g
 567   0.0000      11.361444       309.1606   46-B3g
 568   0.0000      11.366023       309.2852   91-B1g
 569   0.0000      11.444478       311.4201   92-B1g
 570   0.0000      11.524536       313.5986  103-Ag
 571   0.0000      11.690236       318.1075   97-B3u
 572   0.0000      11.723080       319.0012   96-B2u
 573   0.0000      12.617907       343.3507   93-B1g
 574   0.0000      13.582335       369.5941   97-B2u

                 SPIN DOWN ORBITALS
  NO   OCC          E(Eh)            E(eV)    Irrep 
   0   1.0000    -443.560999    -12069.9084    1-B2u
[...]
 -----------------------------------------------------------
 Solving for nuclear perturbation:
Forming RHS of the CP-SCF equations         ... 
Calc. nucleus orbit integrals (SHARK)       ... done

Forming final perturbed densities           ... done
Transforming perturbed density to AO basis  ... done

 Raw HFC matrix (all values in MHz): 
 -----------------------------------
                 1.9712               0.1140              -0.0099
                 0.1368               1.0767              -0.0026
                -0.0020              -0.0372               0.7919

 A(FC)           1.2695               1.2695               1.2695
 A(SD)          -0.4872              -0.2335               0.7207
 A(ORB+DIA)      0.0094               0.0238              -0.0018    A(PC) =   0.0105
 A(ORB)          0.0094               0.0240              -0.0020    A(PC) =   0.0105
 A(DIA)         -0.0001              -0.0002               0.0002    A(PC) =  -0.0000
             ----------           ----------           ----------
 A(Tot)          0.7916               1.0598               1.9883    A(iso)=    1.2799
 Orientation: 
  X           0.0077383           -0.1246932           -0.9921652
  Y           0.0063433            0.9921810           -0.1246457
  Z           0.9999499           -0.0053291            0.0084688

Notes:  (1) The A matrix conforms to the "SAI" spin Hamiltonian convention.
        (2) Tensor is right-handed.

 Raw EFG matrix (all values in a.u.**-3):
 -----------------------------------
             0.1863       0.2122      -0.0000
             0.2122      -0.0106       0.0000
            -0.0000       0.0000      -0.1757

 V(El)       0.6339       0.8900      -1.5239
 V(Nuc)     -0.7800      -1.0657       1.8457
         ----------   ----------   ----------
 V(Tot)     -0.1461      -0.1757       0.3218 
 Orientation: 
  X      -0.5380650    0.0000000    0.8429033
  Y       0.8429033   -0.0000000    0.5380650
  Z       0.0000000    1.0000000   -0.0000000

Note: Tensor is right-handed


 Quadrupole tensor eigenvalues (in MHz;Q= 0.0029 I=  1.0)
  e**2qQ            =     0.216079 MHz 
  e**2qQ/(4I*(2I-1))=     0.054020 MHz 
  eta               =     0.092084
  NOTE: the diagonal representation of the SH term I*Q*I = e**2qQ/(4I(2I-1))*[-(1-eta),-(1+eta),2]

 RHO(0)=      0.477706243 a.u.**-3

 -----------------------------------------------------------
 Nucleus  20H : A:ISTP=    1 I=  0.5 P=533.5514 MHz/au**3
                Q:ISTP=    2 I=  1.0 Q=  0.0029 barn     
 -----------------------------------------------------------
 Solving for nuclear perturbation:
Forming RHS of the CP-SCF equations         ... 
Calc. nucleus orbit integrals (SHARK)       ... done

Forming final perturbed densities           ... done
Transforming perturbed density to AO basis  ... done

 Raw HFC matrix (all values in MHz): 
 -----------------------------------
                 4.7056               0.9468              -0.0129
                 0.9101               2.6161              -0.0342
                 0.0115              -0.0182               1.1268

 A(FC)           2.8100               2.8100               2.8100
 A(SD)          -1.6962              -0.5406               2.2367
 A(ORB+DIA)      0.0125              -0.0057               0.0117    A(PC) =   0.0062
 A(ORB)          0.0131              -0.0050               0.0112    A(PC) =   0.0065
 A(DIA)         -0.0006              -0.0007               0.0005    A(PC) =  -0.0003
             ----------           ----------           ----------
 A(Tot)          1.1263               2.2637               5.0584    A(iso)=    2.8162
 Orientation: 
  X          -0.0030101           -0.3599426           -0.9329696
  Y           0.0249272            0.9326569           -0.3599023
  Z           0.9996847           -0.0243397            0.0061650

Notes:  (1) The A matrix conforms to the "SAI" spin Hamiltonian convention.
        (2) Tensor is right-handed.

 Raw EFG matrix (all values in a.u.**-3):
 -----------------------------------
            -0.1467       0.0009      -0.0000
             0.0009       0.3227       0.0000
            -0.0000       0.0000      -0.1761

 V(El)       0.0451       1.1715      -1.2166
 V(Nuc)     -0.1918      -1.3475       1.5393
         ----------   ----------   ----------
 V(Tot)     -0.1467      -0.1761       0.3227 
 Orientation: 
  X       0.9999980   -0.0000000    0.0020004
  Y      -0.0020004    0.0000000    0.9999980
  Z      -0.0000000   -1.0000000    0.0000000

Note: Tensor is right-handed


 Quadrupole tensor eigenvalues (in MHz;Q= 0.0029 I=  1.0)
  e**2qQ            =     0.216709 MHz 
  e**2qQ/(4I*(2I-1))=     0.054177 MHz 
  eta               =     0.091064
  NOTE: the diagonal representation of the SH term I*Q*I = e**2qQ/(4I(2I-1))*[-(1-eta),-(1+eta),2]

 RHO(0)=      0.484210705 a.u.**-3

 -----------------------------------------------------------
 Nucleus  22H : A:ISTP=    1 I=  0.5 P=533.5514 MHz/au**3
                Q:ISTP=    2 I=  1.0 Q=  0.0029 barn     
 -----------------------------------------------------------
 Solving for nuclear perturbation:
Forming RHS of the CP-SCF equations         ... 
Calc. nucleus orbit integrals (SHARK)       ... done

Forming final perturbed densities           ... done
Transforming perturbed density to AO basis  ... done

 Raw HFC matrix (all values in MHz): 
 -----------------------------------
                 4.7048              -0.9443              -0.0123
                -0.9537               2.5971               0.0347
                -0.0074              -0.0223               1.0673

 A(FC)           2.8100               2.8100               2.8100
 A(SD)          -1.6962              -0.5405               2.2367
 A(ORB+DIA)     -0.0459              -0.0371               0.0224    A(PC) =  -0.0202
 A(ORB)         -0.0453              -0.0365               0.0219    A(PC) =  -0.0200
 A(DIA)         -0.0006              -0.0007               0.0005    A(PC) =  -0.0003
             ----------           ----------           ----------
 A(Tot)          1.0679               2.2323               5.0691    A(iso)=    2.7897
 Orientation: 
  X          -0.0029484            0.3572775           -0.9339936
  Y          -0.0244324            0.9336931            0.3572397
  Z           0.9996971            0.0238730            0.0059762

Notes:  (1) The A matrix conforms to the "SAI" spin Hamiltonian convention.
        (2) Tensor is right-handed.

 Raw EFG matrix (all values in a.u.**-3):
 -----------------------------------
            -0.1467      -0.0009       0.0000
            -0.0009       0.3227       0.0000
             0.0000       0.0000      -0.1761

 V(El)       0.0451       1.1715      -1.2166
 V(Nuc)     -0.1918      -1.3475       1.5393
         ----------   ----------   ----------
 V(Tot)     -0.1467      -0.1761       0.3227 
 Orientation: 
  X      -0.9999980   -0.0000000   -0.0020004
  Y      -0.0020004   -0.0000000    0.9999980
  Z      -0.0000000    1.0000000    0.0000000

Note: Tensor is right-handed


 Quadrupole tensor eigenvalues (in MHz;Q= 0.0029 I=  1.0)
  e**2qQ            =     0.216709 MHz 
  e**2qQ/(4I*(2I-1))=     0.054177 MHz 
  eta               =     0.091064
  NOTE: the diagonal representation of the SH term I*Q*I = e**2qQ/(4I(2I-1))*[-(1-eta),-(1+eta),2]

 RHO(0)=      0.484210705 a.u.**-3

 -----------------------------------------------------------
 Nucleus  23H : A:ISTP=    1 I=  0.5 P=533.5514 MHz/au**3
                Q:ISTP=    2 I=  1.0 Q=  0.0029 barn     
 -----------------------------------------------------------
 Solving for nuclear perturbation:
Forming RHS of the CP-SCF equations         ... 
Calc. nucleus orbit integrals (SHARK)       ... done

Forming final perturbed densities           ... done
Transforming perturbed density to AO basis  ... done

 Raw HFC matrix (all values in MHz): 
 -----------------------------------
                 1.9711               0.1140              -0.0099
                 0.1368               1.0766              -0.0026
                -0.0021              -0.0372               0.7920

 A(FC)           1.2695               1.2695               1.2695
 A(SD)          -0.4872              -0.2335               0.7207
 A(ORB+DIA)      0.0094               0.0237              -0.0018    A(PC) =   0.0104
 A(ORB)          0.0095               0.0239              -0.0020    A(PC) =   0.0104
 A(DIA)         -0.0001              -0.0002               0.0002    A(PC) =  -0.0000
             ----------           ----------           ----------
 A(Tot)          0.7917               1.0597               1.9883    A(iso)=    1.2799
 Orientation: 
  X           0.0077633           -0.1246545           -0.9921698
  Y           0.0063961            0.9921856           -0.1246064
  Z           0.9999494           -0.0053787            0.0084999

Notes:  (1) The A matrix conforms to the "SAI" spin Hamiltonian convention.
        (2) Tensor is right-handed.

 Raw EFG matrix (all values in a.u.**-3):
 -----------------------------------
             0.1863       0.2122      -0.0000
             0.2122      -0.0106      -0.0000
            -0.0000      -0.0000      -0.1757

 V(El)       0.6339       0.8900      -1.5239
 V(Nuc)     -0.7800      -1.0657       1.8457
         ----------   ----------   ----------
 V(Tot)     -0.1461      -0.1757       0.3218 
 Orientation: 
  X       0.5380650   -0.0000000    0.8429033
  Y      -0.8429033    0.0000000    0.5380650
  Z      -0.0000000   -1.0000000   -0.0000000

Note: Tensor is right-handed


 Quadrupole tensor eigenvalues (in MHz;Q= 0.0029 I=  1.0)
  e**2qQ            =     0.216079 MHz 
  e**2qQ/(4I*(2I-1))=     0.054020 MHz 
  eta               =     0.092084
  NOTE: the diagonal representation of the SH term I*Q*I = e**2qQ/(4I(2I-1))*[-(1-eta),-(1+eta),2]

 RHO(0)=      0.477706243 a.u.**-3

 -----------------------------------------------------------
 Nucleus  24H : A:ISTP=    1 I=  0.5 P=533.5514 MHz/au**3
                Q:ISTP=    2 I=  1.0 Q=  0.0029 barn     
 -----------------------------------------------------------
 Solving for nuclear perturbation:
Forming RHS of the CP-SCF equations         ... 
Calc. nucleus orbit integrals (SHARK)       ... done

Forming final perturbed densities           ... done
Transforming perturbed density to AO basis  ... done

 Raw HFC matrix (all values in MHz): 
 -----------------------------------
                 1.9716              -0.1144              -0.0087
                -0.1003               1.0259               0.0036
                 0.0017              -0.0361               0.7705

 A(FC)           1.2695               1.2695               1.2695
 A(SD)          -0.4872              -0.2334               0.7206
 A(ORB+DIA)     -0.0114              -0.0225              -0.0065    A(PC) =  -0.0134
 A(ORB)         -0.0113              -0.0223              -0.0067    A(PC) =  -0.0134
 A(DIA)         -0.0001              -0.0002               0.0002    A(PC) =  -0.0000
             ----------           ----------           ----------
 A(Tot)          0.7709               1.0136               1.9836    A(iso)=    1.2560
 Orientation: 
  X           0.0061965            0.1183975           -0.9929469
  Y          -0.0109621            0.9929144            0.1183252
  Z           0.9999207            0.0101516            0.0074505

Notes:  (1) The A matrix conforms to the "SAI" spin Hamiltonian convention.
        (2) Tensor is right-handed.

 Raw EFG matrix (all values in a.u.**-3):
 -----------------------------------
             0.1863      -0.2122      -0.0000
            -0.2122      -0.0106      -0.0000
            -0.0000      -0.0000      -0.1757

 V(El)       0.6339       0.8900      -1.5239
 V(Nuc)     -0.7800      -1.0657       1.8457
         ----------   ----------   ----------
 V(Tot)     -0.1461      -0.1757       0.3218 
 Orientation: 
  X       0.5380650    0.0000000    0.8429033
  Y       0.8429033    0.0000000   -0.5380650
  Z      -0.0000000    1.0000000   -0.0000000

Note: Tensor is right-handed


 Quadrupole tensor eigenvalues (in MHz;Q= 0.0029 I=  1.0)
  e**2qQ            =     0.216079 MHz 
  e**2qQ/(4I*(2I-1))=     0.054020 MHz 
  eta               =     0.092084
  NOTE: the diagonal representation of the SH term I*Q*I = e**2qQ/(4I(2I-1))*[-(1-eta),-(1+eta),2]

 RHO(0)=      0.477706243 a.u.**-3

 -----------------------------------------------------------
 Nucleus   0Cu: A:ISTP=   63 I=  1.5 P=141.6005 MHz/au**3
                Q:ISTP=   63 I=  1.5 Q= -0.2200 barn     
 -----------------------------------------------------------
 Solving for nuclear perturbation:
Forming RHS of the CP-SCF equations         ... 
Calc. nucleus orbit integrals (SHARK)       ... done

Forming final perturbed densities           ... done
Transforming perturbed density to AO basis  ... done

 Raw HFC matrix (all values in MHz): 
 -----------------------------------
               -33.5755               0.2227               8.5433
               -10.5791             -38.2705              -0.0721
                 0.7356              -0.7136            -416.0504

 A(FC)        -196.4066            -196.4066            -196.4066
 A(SD)         138.7957             139.8725            -278.6682
 A(ORB+DIA)     23.4590              18.8563              59.0082    A(PC) =  33.7745
 A(ORB)         23.4588              18.8571              59.0103    A(PC) =  33.7754
 A(DIA)          0.0002              -0.0008              -0.0022    A(PC) =  -0.0009
             ----------           ----------           ----------
 A(Tot)        -34.1519             -37.6779            -416.0666    A(iso)= -162.6321
 Orientation: 
  X           0.9981916            0.0558160            0.0223200
  Y           0.0558225           -0.9984407            0.0003327
  Z           0.0223038            0.0009139           -0.9997508

Notes:  (1) The A matrix conforms to the "SAI" spin Hamiltonian convention.
        (2) Tensor is right-handed.

 Raw EFG matrix (all values in a.u.**-3):
 -----------------------------------
             0.7302      -0.0000       0.0000
            -0.0000       1.2351       0.0000
             0.0000       0.0000      -1.9653

 V(El)      -0.5710       0.8465      -0.2754
 V(Nuc)      1.3012       0.3887      -1.6899
         ----------   ----------   ----------
 V(Tot)      0.7302       1.2351      -1.9653 
 Orientation: 
  X       1.0000000    0.0000000    0.0000000
  Y       0.0000000   -1.0000000    0.0000000
  Z       0.0000000   -0.0000000   -1.0000000

Note: Tensor is right-handed


 Quadrupole tensor eigenvalues (in MHz;Q=-0.2200 I=  1.5)
  e**2qQ            =   101.590576 MHz 
  e**2qQ/(4I*(2I-1))=     8.465881 MHz 
  eta               =     0.256922
  NOTE: the diagonal representation of the SH term I*Q*I = e**2qQ/(4I(2I-1))*[-(1-eta),-(1+eta),2]

 RHO(0)=  37592.773795965 a.u.**-3


--------------------------------------------------------------------------------
----------------------------------------------------------------------------
                           ORCA EULER ANGLE PROGRAM
----------------------------------------------------------------------------

Only g-tensor available        -->  using g-tensor as reference tensor

Reference tensor               ...  g

g-tensor ordering              ...  |g_min> --> |gx>
                                    |g_mid> --> |gy>
                                    |g_max> --> |gz>

A- and EFG-tensor ordering     ...  the axes |Ax>, |Qx>, |Ay>, etc. are assigned
                                    such that the Euler rotation is minimal. You
                                    can find the respective eigenvalues as Ax,
                                    EFGx, Ay, etc. in the tables below.
                                    The relation of |Ax>, |Ay>,  etc. to Amin, Amid, etc.
                                    (as printed in the ORCA EPR/NMR CALCULATION Output)
                                    is obtained in the detailed printout.

Euler rotation around          ...  z - y - z
   First rotation              -->  by alpha around z
   Second rotation             -->  by beta around y'
   Third rotation              -->  by gamma around z''
   Positive / Negative angle   -->  clockwise / counterclockwise rotation

Plot EFG-tensors                    (-)
Plot HFC-tensors                    (-)
Detailed Printout                   (-)

-------------------------------------------------------------------------
          Euler rotation of hyperfine tensor to g-tensor
-------------------------------------------------------------------------

-------------------------------------------------------------------
 Atom  |   Alpha    Beta    Gamma   |   Ax       Ay       Az 
       |          [degrees]         |           [MHz]         
-------------------------------------------------------------------
 12H     -151.7     28.2    119.1       5.07     2.23     1.07
 14H     -109.0     28.0    125.1       2.26     5.06     1.13
 15H      -77.2     27.6    120.6       1.01     1.98     0.77
 16H      -93.0     27.5    122.8       1.06     1.99     0.79
 20H     -109.0     28.0    125.1       2.26     5.06     1.13
 22H     -151.7     28.2    119.1       5.07     2.23     1.07
 23H      -93.0     27.5    122.8       1.06     1.99     0.79
 24H      -77.1     27.6    120.6       1.01     1.98     0.77
  0Cu     -88.6     29.2    122.2     -37.68   -34.15  -416.07
-------------------------------------------------------------------


-------------------------------------------------------------------------------
    Euler rotation of Electric Field Gradient (EFG) tensor to g-tensor
-------------------------------------------------------------------------------

-------------------------------------------------------------------
 Atom  |   Alpha    Beta    Gamma  |   EFGx     EFGy     EFGz
       |          [degrees]        |         [a.u.**-3]       
-------------------------------------------------------------------
 12H      -85.3     27.9    122.0      0.32    -0.15    -0.18
 14H      -85.1     27.9    122.0      0.32    -0.15    -0.18
 15H     -142.6     27.9    122.0      0.32    -0.15    -0.18
 16H     -117.7     27.9    122.0     -0.15     0.32    -0.18
 20H      -85.1     27.9    122.0      0.32    -0.15    -0.18
 22H      -85.3     27.9    122.0      0.32    -0.15    -0.18
 23H     -117.7     27.9    122.0     -0.15     0.32    -0.18
 24H     -142.6     27.9    122.0      0.32    -0.15    -0.18
  0Cu     -85.2     27.9    122.0      1.24     0.73    -1.97
-------------------------------------------------------------------


Maximum memory used throughout the entire EPRNMR-calculation: 674.9 MB
--------------------------------------------------------------------------
A system call failed during shared memory initialization that should
not have.  It is likely that your MPI job will now either abort or
experience performance degradation.

  Local host:  wapiti
  System call: unlink(2) /dev/shm/vader_segment.wapiti.1003.da570001.23
  Error:       No such file or directory (errno 2)
--------------------------------------------------------------------------
[wapiti:3329007] 63 more processes have sent help message help-opal-shmem-mmap.txt / sys call fail
[wapiti:3329007] Set MCA parameter "orte_base_help_aggregate" to 0 to see all help / error messages

Timings for individual modules:

Sum of individual times         ...    17719.300 sec (= 295.322 min)
GTO integral calculation        ...       37.557 sec (=   0.626 min)   0.2 %
Spin-Orbit-Coupling Matrices    ...      140.774 sec (=   2.346 min)   0.8 %
SCF iterations                  ...      140.910 sec (=   2.348 min)   0.8 %
EPR/NMR calculation             ...    17400.060 sec (= 290.001 min)  98.2 %
                             ****ORCA TERMINATED NORMALLY****
TOTAL RUN TIME: 0 days 4 hours 58 minutes 6 seconds 874 msec
