/home/timkrog/spindecoh/qubcand/estruct/Stanten/Chen1/DFT/redo
input.inp
relax.xyz
start.gbw
11044

                                 *****************
                                 * O   R   C   A *
                                 *****************

                                            #,                                       
                                            ###                                      
                                            ####                                     
                                            #####                                    
                                            ######                                   
                                           ########,                                 
                                     ,,################,,,,,                         
                               ,,#################################,,                 
                          ,,##########################################,,             
                       ,#########################################, ''#####,          
                    ,#############################################,,   '####,        
                  ,##################################################,,,,####,       
                ,###########''''           ''''###############################       
              ,#####''   ,,,,##########,,,,          '''####'''          '####       
            ,##' ,,,,###########################,,,                        '##       
           ' ,,###''''                  '''############,,,                           
         ,,##''                                '''############,,,,        ,,,,,,###''
      ,#''                                            '''#######################'''  
     '                                                          ''''####''''         
             ,#######,   #######,   ,#######,      ##                                
            ,#'     '#,  ##    ##  ,#'     '#,    #''#        ######   ,####,        
            ##       ##  ##   ,#'  ##            #'  '#       #        #'  '#        
            ##       ##  #######   ##           ,######,      #####,   #    #        
            '#,     ,#'  ##    ##  '#,     ,#' ,#      #,         ##   #,  ,#        
             '#######'   ##     ##  '#######'  #'      '#     #####' # '####'        



                  #######################################################
                  #                        -***-                        #
                  #          Department of theory and spectroscopy      #
                  #    Directorship and core code : Frank Neese         #
                  #        Max Planck Institute fuer Kohlenforschung    #
                  #                Kaiser Wilhelm Platz 1               #
                  #                 D-45470 Muelheim/Ruhr               #
                  #                      Germany                        #
                  #                                                     #
                  #                  All rights reserved                #
                  #                        -***-                        #
                  #######################################################


                         Program Version 5.0.4 -  RELEASE  -


 With contributions from (in alphabetic order):
   Daniel Aravena         : Magnetic Suceptibility
   Michael Atanasov       : Ab Initio Ligand Field Theory (pilot matlab implementation)
   Alexander A. Auer      : GIAO ZORA, VPT2 properties, NMR spectrum
   Ute Becker             : Parallelization
   Giovanni Bistoni       : ED, misc. LED, open-shell LED, HFLD
   Martin Brehm           : Molecular dynamics
   Dmytro Bykov           : SCF Hessian
   Vijay G. Chilkuri      : MRCI spin determinant printing, contributions to CSF-ICE
   Dipayan Datta          : RHF DLPNO-CCSD density
   Achintya Kumar Dutta   : EOM-CC, STEOM-CC
   Dmitry Ganyushin       : Spin-Orbit,Spin-Spin,Magnetic field MRCI
   Miquel Garcia          : C-PCM and meta-GGA Hessian, CC/C-PCM, Gaussian charge scheme
   Yang Guo               : DLPNO-NEVPT2, F12-NEVPT2, CIM, IAO-localization
   Andreas Hansen         : Spin unrestricted coupled pair/coupled cluster methods
   Benjamin Helmich-Paris : MC-RPA, TRAH-SCF, COSX integrals
   Lee Huntington         : MR-EOM, pCC
   Robert Izsak           : Overlap fitted RIJCOSX, COSX-SCS-MP3, EOM
   Marcus Kettner         : VPT2
   Christian Kollmar      : KDIIS, OOCD, Brueckner-CCSD(T), CCSD density, CASPT2, CASPT2-K
   Simone Kossmann        : Meta GGA functionals, TD-DFT gradient, OOMP2, MP2 Hessian
   Martin Krupicka        : Initial AUTO-CI
   Lucas Lang             : DCDCAS
   Marvin Lechner         : AUTO-CI (C++ implementation), FIC-MRCC
   Dagmar Lenk            : GEPOL surface, SMD
   Dimitrios Liakos       : Extrapolation schemes; Compound Job, initial MDCI parallelization
   Dimitrios Manganas     : Further ROCIS development; embedding schemes
   Dimitrios Pantazis     : SARC Basis sets
   Anastasios Papadopoulos: AUTO-CI, single reference methods and gradients
   Taras Petrenko         : DFT Hessian,TD-DFT gradient, ASA, ECA, R-Raman, ABS, FL, XAS/XES, NRVS
   Peter Pinski           : DLPNO-MP2, DLPNO-MP2 Gradient
   Christoph Reimann      : Effective Core Potentials
   Marius Retegan         : Local ZFS, SOC
   Christoph Riplinger    : Optimizer, TS searches, QM/MM, DLPNO-CCSD(T), (RO)-DLPNO pert. Triples
   Tobias Risthaus        : Range-separated hybrids, TD-DFT gradient, RPA, STAB
   Michael Roemelt        : Original ROCIS implementation
   Masaaki Saitow         : Open-shell DLPNO-CCSD energy and density
   Barbara Sandhoefer     : DKH picture change effects
   Avijit Sen             : IP-ROCIS
   Kantharuban Sivalingam : CASSCF convergence, NEVPT2, FIC-MRCI
   Bernardo de Souza      : ESD, SOC TD-DFT
   Georgi Stoychev        : AutoAux, RI-MP2 NMR, DLPNO-MP2 response
   Willem Van den Heuvel  : Paramagnetic NMR
   Boris Wezisla          : Elementary symmetry handling
   Frank Wennmohs         : Technical directorship


 We gratefully acknowledge several colleagues who have allowed us to
 interface, adapt or use parts of their codes:
   Stefan Grimme, W. Hujo, H. Kruse, P. Pracht,  : VdW corrections, initial TS optimization,
                  C. Bannwarth, S. Ehlert          DFT functionals, gCP, sTDA/sTD-DF
   Ed Valeev, F. Pavosevic, A. Kumar             : LibInt (2-el integral package), F12 methods
   Garnet Chan, S. Sharma, J. Yang, R. Olivares  : DMRG
   Ulf Ekstrom                                   : XCFun DFT Library
   Mihaly Kallay                                 : mrcc  (arbitrary order and MRCC methods)
   Jiri Pittner, Ondrej Demel                    : Mk-CCSD
   Frank Weinhold                                : gennbo (NPA and NBO analysis)
   Christopher J. Cramer and Donald G. Truhlar   : smd solvation model
   Lars Goerigk                                  : TD-DFT with DH, B97 family of functionals
   V. Asgeirsson, H. Jonsson                     : NEB implementation
   FAccTs GmbH                                   : IRC, NEB, NEB-TS, DLPNO-Multilevel, CI-OPT
                                                   MM, QMMM, 2- and 3-layer-ONIOM, Crystal-QMMM,
                                                   LR-CPCM, SF, NACMEs, symmetry and pop. for TD-DFT,
                                                   nearIR, NL-DFT gradient (VV10), updates on ESD,
                                                   ML-optimized integration grids
   S Lehtola, MJT Oliveira, MAL Marques          : LibXC Library
   Liviu Ungur et al                             : ANISO software


 Your calculation uses the libint2 library for the computation of 2-el integrals
 For citations please refer to: http://libint.valeyev.net

 Your ORCA version has been built with support for libXC version: 5.1.0
 For citations please refer to: https://tddft.org/programs/libxc/

 This ORCA versions uses:
   CBLAS   interface :  Fast vector & matrix operations
   LAPACKE interface :  Fast linear algebra routines
   SCALAPACK package :  Parallel linear algebra routines
   Shared memory     :  Shared parallel matrices
   BLAS/LAPACK       :  OpenBLAS 0.3.15  USE64BITINT DYNAMIC_ARCH NO_AFFINITY Prescott SINGLE_THREADED
        Core in use  :  Prescott
   Copyright (c) 2011-2014, The OpenBLAS Project




***************************************
The coordinates will be read from file: relax.xyz
***************************************


================================================================================

----- Orbital basis set information -----
Your calculation utilizes the basis: TZVP 

The basis set includes element-specific modifications.

Your calculation utilizes the basis: CP(PPP) 

----- AuxJ basis set information -----
Your calculation utilizes the auxiliary basis: def2/J
   F. Weigend, Phys. Chem. Chem. Phys. 8, 1057 (2006).

================================================================================
                                        WARNINGS
                       Please study these warnings very carefully!
================================================================================


WARNING: your system is open-shell and RHF/RKS was chosen
  ===> : WILL SWITCH to UHF/UKS


INFO   : the flag for use of the SHARK integral package has been found!

================================================================================
                                       INPUT FILE
================================================================================
NAME = input.inp
|  1> ! nofrozencore ReducedPop printbasis
|  2> ! B3LYP TZVP
|  3> ! moread
|  4> %moinp "start.gbw"
|  5> 
|  6> %basis
|  7> newgto V "CP(PPP)" end
|  8> end
|  9> 
| 10> %pal
| 11> nprocs 16
| 12> end
| 13> 
| 14> % sym SymThresh 1e-2 end
| 15> * xyzfile -2 2 relax.xyz
| 16> 
| 17> % eprnmr
| 18> 
| 19> gtensor true
| 20> 
| 21> Nuclei = all H {aiso,adip,aorb,fgrad,rho}
| 22> Nuclei = all V {aiso,adip,aorb,fgrad,rho}
| 23> 
| 24> end
| 25> 
| 26>                          ****END OF INPUT****
================================================================================

------------------------------------------------------------------------------
                            SYMMETRY HANDLING SETUP
------------------------------------------------------------------------------

------------------
SYMMETRY DETECTION
------------------
The point group will now be determined using a tolerance of 1.0000e-02.
Splitting atom subsets according to nuclear charge, mass and basis set.
Splitting atom subsets according to distance from the molecule's center.
Identifying relative distance patterns of the atoms.
Splitting atom subsets according to atoms' relative distance patterns.
Bring atoms of each subset into input order.
The molecule is neither linear nor planar.
There is at least one atom subset not centered around the molecule's center.
The molecule does not have a center of inversion.
Analyzing the first atom subset for its symmetry.
The subset consists of a single off-center atom.
No testing is needed for point group C1.
This point group has been found:    C1
Largest non-degenerate subgroup:    C1


Mass-centered symmetry-perfected Cartesians (point group C1):

Atom          Symmetry-perfected Cartesians (x, y, z; au)
  0      -0.193274129445   -0.307146409075    0.858543459958
  1       3.210934410565    2.913132183877    1.822180650988
  2      -2.489049786254    3.497965460572   -0.423988937115
  3       3.089709036473   -3.092787027048   -1.004460740865
  4      -2.937864048583   -2.903111009016   -1.940187458679
  5      -0.989708354525   -1.142985369459    3.658233084938
  6      -5.682921654774    2.528767412351   -1.506515111037
  7      -6.259972056697   -2.273984316252   -1.026967791107
  8      -6.848372805127    0.359823432293    0.021631284539
  9      -6.850417135004   -3.691176562862    0.363966090315
 10      -7.401143720654   -2.585361716616   -2.731388418113
 11      -6.177128599517    0.496789421000    1.970153176413
 12      -8.925596648415    0.569285602294    0.077247912351
 13      -5.597235344251    1.993116372180   -3.503597766857
 14      -6.877045548865    4.214588132304   -1.353800780505
 15       5.343634208787    2.546630050220   -0.922148280355
 16       6.113451367194   -2.068435758695    0.421350202927
 17       7.236378011691    0.364588391215   -0.674038381832
 18       7.471658973313   -3.616065161443    0.184234698713
 19       5.799173639865   -1.799209975309    2.438996786646
 20       8.047090421246   -0.027082687764   -2.550509752575
 21       8.809339015998    0.959361099377    0.554673998440
 22       6.373755084852    4.324203603614   -1.188691694878
 23       4.179402768260    2.253476222967   -2.596670712587


------------------
SYMMETRY REDUCTION
------------------
ORCA supports only abelian point groups.
It is now checked, if the determined point group is supported:
Point Group ( C1    ) is          ... supported

The point group is C1 - hence turning off symmetry
If this is a round-off problem, please increase the symmetry
        detection tolerance (%method SymThresh)

Storing the symmetry object:
Symmetry file                     ... input.sym.tmp
Writing symmetry information      ... done

                       ****************************
                       * Single Point Calculation *
                       ****************************

---------------------------------
CARTESIAN COORDINATES (ANGSTROEM)
---------------------------------
  V     -0.102276   -0.162535    0.454322
  S      1.699153    1.541563    0.964256
  S     -1.317148    1.851044   -0.224365
  S      1.635004   -1.636632   -0.531538
  S     -1.554651   -1.536260   -1.026703
  O     -0.523731   -0.604842    1.935854
  C     -3.007273    1.338166   -0.797213
  C     -3.312635   -1.203341   -0.543448
  C     -3.624003    0.190410    0.011447
  H     -3.625085   -1.953287    0.192603
  H     -3.916517   -1.368114   -1.445388
  H     -3.268796    0.262890    1.042560
  H     -4.723222    0.301253    0.040878
  H     -2.961929    1.054712   -1.854024
  H     -3.639176    2.230264   -0.716401
  C      2.827729    1.347619   -0.487980
  C      3.235099   -1.094569    0.222969
  C      3.829326    0.192932   -0.356686
  H      3.953832   -1.913539    0.097493
  H      3.068791   -0.952101    1.290662
  H      4.258337   -0.014332   -1.349672
  H      4.661701    0.507672    0.293521
  H      3.372846    2.288270   -0.629029
  H      2.211645    1.192488   -1.374099

----------------------------
CARTESIAN COORDINATES (A.U.)
----------------------------
  NO LB      ZA    FRAG     MASS         X           Y           Z
   0 V    23.0000    0    50.940   -0.193274   -0.307146    0.858543
   1 S    16.0000    0    32.060    3.210934    2.913132    1.822181
   2 S    16.0000    0    32.060   -2.489050    3.497965   -0.423989
   3 S    16.0000    0    32.060    3.089709   -3.092787   -1.004461
   4 S    16.0000    0    32.060   -2.937864   -2.903111   -1.940187
   5 O     8.0000    0    15.999   -0.989708   -1.142985    3.658233
   6 C     6.0000    0    12.011   -5.682922    2.528767   -1.506515
   7 C     6.0000    0    12.011   -6.259972   -2.273984   -1.026968
   8 C     6.0000    0    12.011   -6.848373    0.359823    0.021631
   9 H     1.0000    0     1.008   -6.850417   -3.691177    0.363966
  10 H     1.0000    0     1.008   -7.401144   -2.585362   -2.731388
  11 H     1.0000    0     1.008   -6.177129    0.496789    1.970153
  12 H     1.0000    0     1.008   -8.925597    0.569286    0.077248
  13 H     1.0000    0     1.008   -5.597235    1.993116   -3.503598
  14 H     1.0000    0     1.008   -6.877046    4.214588   -1.353801
  15 C     6.0000    0    12.011    5.343634    2.546630   -0.922148
  16 C     6.0000    0    12.011    6.113451   -2.068436    0.421350
  17 C     6.0000    0    12.011    7.236378    0.364588   -0.674038
  18 H     1.0000    0     1.008    7.471659   -3.616065    0.184235
  19 H     1.0000    0     1.008    5.799174   -1.799210    2.438997
  20 H     1.0000    0     1.008    8.047090   -0.027083   -2.550510
  21 H     1.0000    0     1.008    8.809339    0.959361    0.554674
  22 H     1.0000    0     1.008    6.373755    4.324204   -1.188692
  23 H     1.0000    0     1.008    4.179403    2.253476   -2.596671

--------------------------------
INTERNAL COORDINATES (ANGSTROEM)
--------------------------------
 V      0   0   0     0.000000000000     0.00000000     0.00000000
 S      1   0   0     2.531626385702     0.00000000     0.00000000
 S      1   2   0     2.447657769238    81.67914991     0.00000000
 S      1   2   3     2.482543762267    88.95285647   137.41063196
 S      1   2   3     2.487960328545   155.08799318    71.56150125
 O      1   2   3     1.602559355861   100.76045924   250.41515377
 C      3   1   2     1.856803218405   108.06528277   180.61913203
 C      5   1   2     1.853342389542   107.41703932   235.08345122
 C      8   5   1     1.532122807657   116.78314789    30.47419499
 H      8   5   1     1.096272849292   108.81612489   266.96117149
 H      8   5   1     1.097870975896   106.29442369   152.05318203
 H      9   8   5     1.092986800834   109.63027037   283.88309688
 H      9   8   5     1.105185871719   107.63845543   167.89915738
 H      7   3   1     1.095103218198   109.36177116   274.39341750
 H      7   3   1     1.096207547995   106.09140082   158.38147390
 C      2   1   3     1.849402310421   101.85694234   258.01060036
 C      4   1   2     1.850248267483   105.62184459    22.47129451
 C     17   4   1     1.531915182985   115.30136120   282.76793547
 H     17   4   1     1.096828553799   107.53494906   160.61015934
 H     17   4   1     1.089918889870   107.80676877    44.34198882
 H     18  17   4     1.101376010086   109.51667976   285.56884249
 H     18  17   4     1.102124450294   108.04355857   169.42165637
 H     16   2   1     1.096299137521   108.32941405   154.83599405
 H     16   2   1     1.090336140128   107.95575751    38.86707328

---------------------------
INTERNAL COORDINATES (A.U.)
---------------------------
 V      0   0   0     0.000000000000     0.00000000     0.00000000
 S      1   0   0     4.784080542386     0.00000000     0.00000000
 S      1   2   0     4.625402853424    81.67914991     0.00000000
 S      1   2   3     4.691327826158    88.95285647   137.41063196
 S      1   2   3     4.701563653011   155.08799318    71.56150125
 O      1   2   3     3.028398295930   100.76045924   250.41515377
 C      3   1   2     3.508849567369   108.06528277   180.61913203
 C      5   1   2     3.502309548621   107.41703932   235.08345122
 C      8   5   1     2.895292510006   116.78314789    30.47419499
 H      8   5   1     2.071655453215   108.81612489   266.96117149
 H      8   5   1     2.074675474824   106.29442369   152.05318203
 H      9   8   5     2.065445721567   109.63027037   283.88309688
 H      9   8   5     2.088498624628   107.63845543   167.89915738
 H      7   3   1     2.069445170771   109.36177116   274.39341750
 H      7   3   1     2.071532051649   106.09140082   158.38147390
 C      2   1   3     3.494863878138   101.85694234   258.01060036
 C      4   1   2     3.496462505305   105.62184459    22.47129451
 C     17   4   1     2.894900156238   115.30136120   282.76793547
 H     17   4   1     2.072705582544   107.53494906   160.61015934
 H     17   4   1     2.059648210042   107.80676877    44.34198882
 H     18  17   4     2.081299029533   109.51667976   285.56884249
 H     18  17   4     2.082713376554   108.04355857   169.42165637
 H     16   2   1     2.071705130769   108.32941405   154.83599405
 H     16   2   1     2.060436698759   107.95575751    38.86707328

---------------------
BASIS SET INFORMATION
---------------------
There are 5 groups of distinct atoms

 Group   1 Type V   : 17s11p5d1f contracted to 17s7p3d1f pattern {11111111111111111/3311111/311/1}
 Group   2 Type S   : 14s9p1d contracted to 5s4p1d pattern {73211/6111/1}
 Group   3 Type O   : 11s6p1d contracted to 5s3p1d pattern {62111/411/1}
 Group   4 Type C   : 11s6p1d contracted to 5s3p1d pattern {62111/411/1}
 Group   5 Type H   : 5s1p contracted to 3s1p pattern {311/1}

Atom   0V    basis set group =>   1
Atom   1S    basis set group =>   2
Atom   2S    basis set group =>   2
Atom   3S    basis set group =>   2
Atom   4S    basis set group =>   2
Atom   5O    basis set group =>   3
Atom   6C    basis set group =>   4
Atom   7C    basis set group =>   4
Atom   8C    basis set group =>   4
Atom   9H    basis set group =>   5
Atom  10H    basis set group =>   5
Atom  11H    basis set group =>   5
Atom  12H    basis set group =>   5
Atom  13H    basis set group =>   5
Atom  14H    basis set group =>   5
Atom  15C    basis set group =>   4
Atom  16C    basis set group =>   4
Atom  17C    basis set group =>   4
Atom  18H    basis set group =>   5
Atom  19H    basis set group =>   5
Atom  20H    basis set group =>   5
Atom  21H    basis set group =>   5
Atom  22H    basis set group =>   5
Atom  23H    basis set group =>   5

-------------------------
BASIS SET IN INPUT FORMAT
-------------------------

 # Basis set for element : H 
 NewGTO H 
 S 3 
   1      34.0613410000      0.0254393168
   2       5.1235746000      0.1900859340
   3       1.1646626000      0.8524411390
 S 1 
   1       0.3272304100      1.0000000000
 S 1 
   1       0.1030724100      1.0000000000
 P 1 
   1       0.8000000000      1.0000000000
  end;

 # Basis set for element : C 
 NewGTO C 
 S 6 
   1   13575.3496820000      0.0006064601
   2    2035.2333680000      0.0046978985
   3     463.2256235900      0.0243324735
   4     131.2001959800      0.0973999560
   5      42.8530158900      0.3019558443
   6      15.5841857700      0.6623361013
 S 2 
   1       6.2067138500      0.6559530795
   2       2.5764896500      0.3758563390
 S 1 
   1       0.5769633900      1.0000000000
 S 1 
   1       0.2297283100      1.0000000000
 S 1 
   1       0.0951644400      1.0000000000
 P 4 
   1      34.6972322400      0.0113272290
   2       7.9582622800      0.0761696612
   3       2.3780826900      0.3019225154
   4       0.8143320800      0.7278502776
 P 1 
   1       0.2888754700      1.0000000000
 P 1 
   1       0.1005682400      1.0000000000
 D 1 
   1       0.8000000000      1.0000000000
  end;

 # Basis set for element : O 
 NewGTO O 
 S 6 
   1   27032.3826310000      0.0005722654
   2    4052.3871392000      0.0044353333
   3     922.3272271000      0.0230201034
   4     261.2407098900      0.0928224938
   5      85.3546413500      0.2937849971
   6      31.0350352400      0.6740160462
 S 2 
   1      12.2608607300      0.6383993750
   2       4.9987076000      0.3953458663
 S 1 
   1       1.1703108200      1.0000000000
 S 1 
   1       0.4647474100      1.0000000000
 S 1 
   1       0.1850453600      1.0000000000
 P 4 
   1      63.2749548000      0.0120183316
   2      14.6270493800      0.0830054304
   3       4.4501223500      0.3199174388
   4       1.5275799600      0.7071554258
 P 1 
   1       0.5293511800      1.0000000000
 P 1 
   1       0.1747842100      1.0000000000
 D 1 
   1       1.2000000000      1.0000000000
  end;

 # Basis set for element : S 
 NewGTO S 
 S 7 
   1   60700.9281040000      0.0005238013
   2    9102.6106854000      0.0040506304
   3    2071.4166009000      0.0208270003
   4     586.0247682100      0.0814968475
   5     190.5539502100      0.2374911358
   6      67.6303842600      0.4472617145
   7      25.1273069100      0.3489191913
 S 3 
   1     112.5746301000      0.1004556993
   2      34.7955542200      0.4339117282
   3       6.5115556200     -1.2084330582
 S 2 
   1       3.2399032300      0.6749812922
   2       1.5477160900      0.3470879597
 S 1 
   1       0.4054103000      1.0000000000
 S 1 
   1       0.1455065100      1.0000000000
 P 6 
   1     564.3671602700      0.0025564845
   2     133.4262437900      0.0202874255
   3      42.4682711900      0.0927670112
   4      15.6165275800      0.2650208365
   5       6.1093988500      0.4486298663
   6       2.4404160200      0.3596369916
 P 1 
   1       0.8388220100      1.0000000000
 P 1 
   1       0.3128874700      1.0000000000
 P 1 
   1       0.1077010900      1.0000000000
 D 1 
   1       0.5500000000      1.0000000000
  end;

 # Basis set for element : V 
 NewGTO V 
 S 1 
   1  4239814.9912500000      1.0000000000
 S 1 
   1  1695925.9965000001      1.0000000000
 S 1 
   1  678370.3986000001      1.0000000000
 S 1 
   1  271348.1594400000      1.0000000000
 S 1 
   1   40672.0050780000      1.0000000000
 S 1 
   1    9257.0761385000      1.0000000000
 S 1 
   1    2622.7328773000      1.0000000000
 S 1 
   1     858.5948018500      1.0000000000
 S 1 
   1     314.1941865000      1.0000000000
 S 1 
   1     124.4786212700      1.0000000000
 S 1 
   1      50.4693993090      1.0000000000
 S 1 
   1      12.5138469110      1.0000000000
 S 1 
   1       5.3447758082      1.0000000000
 S 1 
   1       1.5755631295      1.0000000000
 S 1 
   1       0.6306903307      1.0000000000
 S 1 
   1       0.0879544416      1.0000000000
 S 1 
   1       0.0342969197      1.0000000000
 P 3 
   1    1450.0319327000     -0.0222847647
   2     343.7504988400     -0.1817959329
   3     110.8252170800     -0.8607412073
 P 3 
   1      41.8224645460     -0.2522537814
   2      17.0880737100     -0.4620379520
   3       7.2613218939     -0.3990010670
 P 1 
   1       2.9458145262      1.0000000000
 P 1 
   1       1.1650209680      1.0000000000
 P 1 
   1       0.4339937839      1.0000000000
 D 3 
   1      27.3603358640      0.0575501019
   2       7.4542765527      0.3023798347
   3       2.4632270217      0.7724212088
 D 1 
   1       0.8249954244      1.0000000000
 D 1 
   1       0.2526297057      1.0000000000
 P 1 
   1       0.1112480000      1.0000000000
 P 1 
   1       0.0363780000      1.0000000000
 F 1 
   1       1.8000000000      1.0000000000
  end;

---------------------------------
AUXILIARY/J BASIS SET INFORMATION
---------------------------------
There are 5 groups of distinct atoms

 Group   1 Type V   : 19s5p5d3f3g contracted to 8s5p5d2f3g pattern {121111111/11111/11111/21/111}
 Group   2 Type S   : 14s5p5d2f1g contracted to 8s4p3d1f1g pattern {71111111/2111/311/2/1}
 Group   3 Type O   : 12s5p4d2f1g contracted to 6s4p3d1f1g pattern {711111/2111/211/2/1}
 Group   4 Type C   : 12s5p4d2f1g contracted to 6s4p3d1f1g pattern {711111/2111/211/2/1}
 Group   5 Type H   : 5s2p1d contracted to 3s1p1d pattern {311/2/1}

Atom   0V    basis set group =>   1
Atom   1S    basis set group =>   2
Atom   2S    basis set group =>   2
Atom   3S    basis set group =>   2
Atom   4S    basis set group =>   2
Atom   5O    basis set group =>   3
Atom   6C    basis set group =>   4
Atom   7C    basis set group =>   4
Atom   8C    basis set group =>   4
Atom   9H    basis set group =>   5
Atom  10H    basis set group =>   5
Atom  11H    basis set group =>   5
Atom  12H    basis set group =>   5
Atom  13H    basis set group =>   5
Atom  14H    basis set group =>   5
Atom  15C    basis set group =>   4
Atom  16C    basis set group =>   4
Atom  17C    basis set group =>   4
Atom  18H    basis set group =>   5
Atom  19H    basis set group =>   5
Atom  20H    basis set group =>   5
Atom  21H    basis set group =>   5
Atom  22H    basis set group =>   5
Atom  23H    basis set group =>   5

-------------------------------------
AUXILIARY/J BASIS SET IN INPUT FORMAT
-------------------------------------

 # Auxiliary/J basis set for element : H 
 NewAuxJGTO H 
 S 3 
   1      15.6752927000      0.1007184237
   2       3.6063578000      0.3404257499
   3       1.2080016000      0.6491996172
 S 1 
   1       0.4726794000      1.0000000000
 S 1 
   1       0.2018100000      1.0000000000
 P 2 
   1       2.0281365000      0.5596620919
   2       0.5358730000      0.5596620919
 D 1 
   1       2.2165124000      1.0000000000
  end;

 # Auxiliary/J basis set for element : C 
 NewAuxJGTO C 
 S 7 
   1    1861.0916331000      0.0134602335
   2     642.9939764000      0.0299160374
   3     235.1105725000      0.1008649584
   4      90.7028894000      0.2370970548
   5      36.7794552000      0.3924037254
   6      15.6046273000      0.3195862154
   7       6.8907294000      0.0530104441
 S 1 
   1       3.1478850000     -1.0000000000
 S 1 
   1       1.4777287000      1.0000000000
 S 1 
   1       0.7076466000      1.0000000000
 S 1 
   1       0.3430122000      1.0000000000
 S 1 
   1       0.1669453000      1.0000000000
 P 2 
   1      13.5472892000     -0.6769313712
   2       5.4669419000     -0.3779500978
 P 1 
   1       2.1751721000      1.0000000000
 P 1 
   1       0.8582194000      1.0000000000
 P 1 
   1       0.3376720000      1.0000000000
 D 2 
   1       5.9287253000     -0.3533329857
   2       1.9809209000     -0.7456525731
 D 1 
   1       0.8055417000     -1.0000000000
 D 1 
   1       0.3531244000     -1.0000000000
 F 2 
   1       1.6755626000      0.6311076882
   2       0.5997536000      0.4968166032
 G 1 
   1       1.0024600000     -1.0000000000
  end;

 # Auxiliary/J basis set for element : O 
 NewAuxJGTO O 
 S 7 
   1    2876.8216605000      0.0168151159
   2    1004.7443032000      0.0340137548
   3     369.7579954000      0.1194951309
   4     142.9442404000      0.2664627624
   5      57.8366425000      0.4202764046
   6      24.3864983000      0.2765077335
   7      10.6622662000      0.0057008815
 S 1 
   1       4.8070437000     -1.0000000000
 S 1 
   1       2.2210770000      1.0000000000
 S 1 
   1       1.0447795000      1.0000000000
 S 1 
   1       0.4968425000      1.0000000000
 S 1 
   1       0.2371384000      1.0000000000
 P 2 
   1      64.2613382000     -0.2731534179
   2      16.3006076000     -0.8168011598
 P 1 
   1       4.3550542000      1.0000000000
 P 1 
   1       1.2019554000      1.0000000000
 P 1 
   1       0.3354196000      1.0000000000
 D 2 
   1       9.2146611000     -0.4661230638
   2       2.8435251000     -0.6600908911
 D 1 
   1       0.9955759000     -1.0000000000
 D 1 
   1       0.3649441000     -1.0000000000
 F 2 
   1       2.6420115000      0.5931563945
   2       0.7345613000      0.5931563945
 G 1 
   1       1.3931000000     -1.0000000000
  end;

 # Auxiliary/J basis set for element : S 
 NewAuxJGTO S 
 S 7 
   1    7399.0303145000      0.0295137551
   2    2710.1675859000      0.0559686311
   3    1034.3279062000      0.1764696370
   4     410.4645411000      0.3577969368
   5     168.9762502000      0.4299293578
   6      71.9687889000      0.1259148089
   7      31.6172683000     -0.0646025788
 S 1 
   1      14.2796836000      1.0000000000
 S 1 
   1       6.6060948000      1.0000000000
 S 1 
   1       3.1181477000      1.0000000000
 S 1 
   1       1.4954039000     -1.0000000000
 S 1 
   1       0.7254779000      1.0000000000
 S 1 
   1       0.3544216000      1.0000000000
 S 1 
   1       0.1735525000      1.0000000000
 P 2 
   1      12.6998799000      1.4059102813
   2       4.4295784000     -1.2124994202
 P 1 
   1       1.5232889000      1.0000000000
 P 1 
   1       0.5194667000     -1.0000000000
 P 1 
   1       0.1766547000     -1.0000000000
 D 3 
   1      16.8546461000      1.0295742104
   2       5.0810461000     -0.7461553923
   3       1.5102323000      0.8357028005
 D 1 
   1       0.4451331000      1.0000000000
 D 1 
   1       0.1308362000      1.0000000000
 F 2 
   1       1.0809860000      0.5572698934
   2       0.4161474000      0.5572698934
 G 1 
   1       0.6707100000     -1.0000000000
  end;

 # Auxiliary/J basis set for element : V 
 NewAuxJGTO V 
 S 12 
   1   11942.0842430000      0.0459866720
   2    2430.7110193000      0.1744615821
   3     841.0764301000      0.2900402792
   4     494.7508273000      0.1411212903
   5     291.0298903000      0.2660697186
   6     171.1940483000      0.0446365706
   7      59.2366916000     -0.0408204801
   8      34.8451117000      0.1394665381
   9      20.4971240000      0.2164746715
  10      12.0571314000      0.0864266611
  11       7.0924300000     -0.0568501658
  12       4.1720176000     -0.0126212852
 S 1 
   1       2.4541279000      1.0000000000
 S 1 
   1       1.4436046000      1.0000000000
 S 1 
   1       0.8491792000      1.0000000000
 S 1 
   1       0.2938336000      1.0000000000
 S 1 
   1       0.1728433000      1.0000000000
 S 1 
   1       0.1016725000      1.0000000000
 S 1 
   1       0.0598074000      1.0000000000
 P 1 
   1      16.7130979000     -1.0000000000
 P 1 
   1       4.7454037000     -1.0000000000
 P 1 
   1       1.3889998000      1.0000000000
 P 1 
   1       0.4142440000     -1.0000000000
 P 1 
   1       0.1243234000      1.0000000000
 D 1 
   1       7.7143225000      1.0000000000
 D 1 
   1       3.1170731000      1.0000000000
 D 1 
   1       1.2767950000     -1.0000000000
 D 1 
   1       0.5273386000      1.0000000000
 D 1 
   1       0.2184050000      1.0000000000
 F 2 
   1       3.1309344000     -1.0825667766
   2       1.0419780000      0.1809223232
 F 1 
   1       0.3559044000      1.0000000000
 G 1 
   1       8.7130110000      1.0000000000
 G 1 
   1       2.7493872000      1.0000000000
 G 1 
   1       0.8775089000      1.0000000000
  end;



           ************************************************************
           *        Program running with 16 parallel MPI-processes    *
           *              working on a common directory               *
           ************************************************************
------------------------------------------------------------------------------
                           ORCA GTO INTEGRAL CALCULATION
                           -- RI-GTO INTEGRALS CHOSEN --
------------------------------------------------------------------------------
------------------------------------------------------------------------------
                   ___                                                        
                  /   \      - P O W E R E D   B Y -                         
                 /     \                                                     
                 |  |  |   _    _      __       _____    __    __             
                 |  |  |  | |  | |    /  \     |  _  \  |  |  /  |          
                  \  \/   | |  | |   /    \    | | | |  |  | /  /          
                 / \  \   | |__| |  /  /\  \   | |_| |  |  |/  /          
                |  |  |   |  __  | /  /__\  \  |    /   |      \           
                |  |  |   | |  | | |   __   |  |    \   |  |\   \          
                \     /   | |  | | |  |  |  |  | |\  \  |  | \   \       
                 \___/    |_|  |_| |__|  |__|  |_| \__\ |__|  \__/        
                                                                              
                      - O R C A' S   B I G   F R I E N D -                    
                                      &                                       
                       - I N T E G R A L  F E E D E R -                       
                                                                              
 v1 FN, 2020, v2 2021                                                         
------------------------------------------------------------------------------


Reading SHARK input file input.SHARKINP.tmp ... ok
----------------------
SHARK INTEGRAL PACKAGE
----------------------

Number of atoms                             ...     24
Number of basis functions                   ...    353
Number of shells                            ...    179
Maximum angular momentum                    ...      3
Integral batch strategy                     ... SHARK/LIBINT Hybrid
RI-J (if used) integral strategy            ... SPLIT-RIJ (Revised 2003 algorithm where possible)
Printlevel                                  ...      1
Contraction scheme used                     ... SEGMENTED contraction
Coulomb Range Separation                    ... NOT USED
Exchange Range Separation                   ... NOT USED
Finite Nucleus Model                        ... NOT USED
Auxiliary Coulomb fitting basis             ... AVAILABLE
   # of basis functions in Aux-J            ...    768
   # of shells in Aux-J                     ...    256
   Maximum angular momentum in Aux-J        ...      4
Auxiliary J/K fitting basis                 ... NOT available
Auxiliary Correlation fitting basis         ... NOT available
Auxiliary 'external' fitting basis          ... NOT available
Integral threshold                          ...     1.000000e-10
Primitive cut-off                           ...     1.000000e-11
Primitive pair pre-selection threshold      ...     1.000000e-11

Calculating pre-screening integrals         ... done (  0.1 sec) Dimension = 179
Organizing shell pair data                  ... done (  0.1 sec)
Shell pair information
Total number of shell pairs                 ...     16110
Shell pairs after pre-screening             ...     11589
Total number of primitive shell pairs       ...     54315
Primitive shell pairs kept                  ...     25766
          la=0 lb=0:   3964 shell pairs
          la=1 lb=0:   4443 shell pairs
          la=1 lb=1:   1273 shell pairs
          la=2 lb=0:   1072 shell pairs
          la=2 lb=1:    612 shell pairs
          la=2 lb=2:     85 shell pairs
          la=3 lb=0:     77 shell pairs
          la=3 lb=1:     48 shell pairs
          la=3 lb=2:     14 shell pairs
          la=3 lb=3:      1 shell pairs

Calculating one electron integrals          ... done (  0.0 sec)
Calculating RI/J V-Matrix + Cholesky decomp.... done (  0.1 sec)
Calculating Nuclear repulsion               ... done (  0.0 sec) ENN=   1521.066916603774 Eh

SHARK setup successfully completed in   0.5 seconds

Maximum memory used throughout the entire GTOINT-calculation: 25.5 MB


           ************************************************************
           *        Program running with 16 parallel MPI-processes    *
           *              working on a common directory               *
           ************************************************************
-------------------------------------------------------------------------------
                                 ORCA SCF
-------------------------------------------------------------------------------

------------
SCF SETTINGS
------------
Hamiltonian:
 Density Functional     Method          .... DFT(GTOs)
 Exchange Functional    Exchange        .... B88
   X-Alpha parameter    XAlpha          ....  0.666667
   Becke's b parameter  XBeta           ....  0.004200
 Correlation Functional Correlation     .... LYP
 LDA part of GGA corr.  LDAOpt          .... VWN-5
 Gradients option       PostSCFGGA      .... off
 Hybrid DFT is turned on
   Fraction HF Exchange ScalHFX         ....  0.200000
   Scaling of DF-GGA-X  ScalDFX         ....  0.720000
   Scaling of DF-GGA-C  ScalDFC         ....  0.810000
   Scaling of DF-LDA-C  ScalLDAC        ....  1.000000
   Perturbative correction              ....  0.000000
   Density functional embedding theory  .... OFF
   NL short-range parameter             ....  4.800000
 RI-approximation to the Coulomb term is turned on
   Number of AuxJ basis functions       .... 768
   RIJ-COSX (HFX calculated with COS-X)).... on


General Settings:
 Integral files         IntName         .... input
 Hartree-Fock type      HFTyp           .... UHF
 Total Charge           Charge          ....   -2
 Multiplicity           Mult            ....    2
 Number of Electrons    NEL             ....  145
 Basis Dimension        Dim             ....  353
 Nuclear Repulsion      ENuc            ....   1521.0669166038 Eh

Convergence Acceleration:
 DIIS                   CNVDIIS         .... on
   Start iteration      DIISMaxIt       ....    12
   Startup error        DIISStart       ....  0.200000
   # of expansion vecs  DIISMaxEq       ....     5
   Bias factor          DIISBfac        ....   1.050
   Max. coefficient     DIISMaxC        ....  10.000
 Trust-Rad. Augm. Hess. CNVTRAH         .... auto
   Auto Start mean grad. ratio tolernc. ....  1.125000
   Auto Start start iteration           ....     1
   Auto Start num. interpolation iter.  ....    10
   Max. Number of Micro iterations      ....    16
   Max. Number of Macro iterations      .... Maxiter - #DIIS iter
   Number of Davidson start vectors     ....     2
   Converg. threshold I  (grad. norm)   ....   5.000e-05
   Converg. threshold II (energy diff.) ....   1.000e-06
   Grad. Scal. Fac. for Micro threshold ....   0.100
   Minimum threshold for Micro iter.    ....   0.010
   NR start threshold (gradient norm)   ....   0.001
   Initial trust radius                 ....   0.400
   Minimum AH scaling param. (alpha)    ....   1.000
   Maximum AH scaling param. (alpha)    .... 1000.000
   Orbital update algorithm             .... Taylor
   White noise on init. David. guess    .... on
   Maximum white noise                  ....   0.010
   Quad. conv. algorithm                .... NR
 SOSCF                  CNVSOSCF        .... off
 Level Shifting         CNVShift        .... on
   Level shift para.    LevelShift      ....    0.2500
   Turn off err/grad.   ShiftErr        ....    0.0010
 Zerner damping         CNVZerner       .... off
 Static damping         CNVDamp         .... on
   Fraction old density DampFac         ....    0.7000
   Max. Damping (<1)    DampMax         ....    0.9800
   Min. Damping (>=0)   DampMin         ....    0.0000
   Turn off err/grad.   DampErr         ....    0.1000
 Fernandez-Rico         CNVRico         .... off

SCF Procedure:
 Maximum # iterations   MaxIter         ....   125
 SCF integral mode      SCFMode         .... Direct
   Integral package                     .... SHARK and LIBINT hybrid scheme
 Reset frequency        DirectResetFreq ....    20
 Integral Threshold     Thresh          ....  1.000e-10 Eh
 Primitive CutOff       TCut            ....  1.000e-11 Eh

Convergence Tolerance:
 Convergence Check Mode ConvCheckMode   .... Total+1el-Energy
 Convergence forced     ConvForced      .... 0
 Energy Change          TolE            ....  1.000e-06 Eh
 1-El. energy change                    ....  1.000e-03 Eh
 DIIS Error             TolErr          ....  1.000e-06


Diagonalization of the overlap matrix:
Smallest eigenvalue                        ... 2.795e-04
Time for diagonalization                   ...    0.080 sec
Threshold for overlap eigenvalues          ... 1.000e-08
Number of eigenvalues below threshold      ... 0
Time for construction of square roots      ...    0.048 sec
Total time needed                          ...    0.132 sec

---------------------
INITIAL GUESS: MOREAD
---------------------
Guess MOs are being read from file: start.gbw
Input geometry compatible with but different from current geometry
Input basis set matches current basis set (good)
MOs were renormalized
MOs were reorthogonalized (Cholesky)
                      ------------------
                      INITIAL GUESS DONE (   0.2 sec)
                      ------------------
-------------------
DFT GRID GENERATION
-------------------

General Integration Accuracy     IntAcc      ... 4.388
Radial Grid Type                 RadialGrid  ... OptM3 with GC (2021)
Angular Grid (max. ang.)         AngularGrid ... 4 (Lebedev-302)
Angular grid pruning method      GridPruning ... 4 (adaptive)
Weight generation scheme         WeightScheme... Becke
Basis function cutoff            BFCut       ... 1.0000e-10
Integration weight cutoff        WCut        ... 1.0000e-14
Angular grids for H and He will be reduced by one unit
Partially contracted basis set               ... off
Rotationally invariant grid construction     ... off

Total number of grid points                  ...   131008
Total number of batches                      ...     2061
Average number of points per batch           ...       63
Average number of grid points per atom       ...     5459
Time for grid setup =    1.183 sec

--------------------
COSX GRID GENERATION
--------------------

GRIDX 1
-------
General Integration Accuracy     IntAcc      ... 3.816
Radial Grid Type                 RadialGrid  ... OptM3 with GC (2021)
Angular Grid (max. ang.)         AngularGrid ... 1 (Lebedev-50)
Angular grid pruning method      GridPruning ... 4 (adaptive)
Weight generation scheme         WeightScheme... Becke
Basis function cutoff            BFCut       ... 1.0000e-10
Integration weight cutoff        WCut        ... 1.0000e-14
Angular grids for H and He will be reduced by one unit
Partially contracted basis set               ... on
Rotationally invariant grid construction     ... off

Total number of grid points                  ...    16414
Total number of batches                      ...      269
Average number of points per batch           ...       61
Average number of grid points per atom       ...      684
UseSFitting                                  ... on

GRIDX 2
-------
General Integration Accuracy     IntAcc      ... 4.020
Radial Grid Type                 RadialGrid  ... OptM3 with GC (2021)
Angular Grid (max. ang.)         AngularGrid ... 2 (Lebedev-110)
Angular grid pruning method      GridPruning ... 4 (adaptive)
Weight generation scheme         WeightScheme... Becke
Basis function cutoff            BFCut       ... 1.0000e-10
Integration weight cutoff        WCut        ... 1.0000e-14
Angular grids for H and He will be reduced by one unit
Partially contracted basis set               ... on
Rotationally invariant grid construction     ... off

Total number of grid points                  ...    34388
Total number of batches                      ...      552
Average number of points per batch           ...       62
Average number of grid points per atom       ...     1433
UseSFitting                                  ... on

GRIDX 3
-------
General Integration Accuracy     IntAcc      ... 4.338
Radial Grid Type                 RadialGrid  ... OptM3 with GC (2021)
Angular Grid (max. ang.)         AngularGrid ... 3 (Lebedev-194)
Angular grid pruning method      GridPruning ... 4 (adaptive)
Weight generation scheme         WeightScheme... Becke
Basis function cutoff            BFCut       ... 1.0000e-10
Integration weight cutoff        WCut        ... 1.0000e-14
Angular grids for H and He will be reduced by one unit
Partially contracted basis set               ... on
Rotationally invariant grid construction     ... off

Total number of grid points                  ...    77436
Total number of batches                      ...     1222
Average number of points per batch           ...       63
Average number of grid points per atom       ...     3226
UseSFitting                                  ... on

Time for X-Grid setup             =    0.936 sec

--------------
SCF ITERATIONS
--------------
ITER       Energy         Delta-E        Max-DP      RMS-DP      [F,P]     Damp
               ***  Starting incremental Fock matrix formation  ***
  0  -2847.7180614429   0.000000000000 0.00001471  0.00000022  0.0000044 0.7000
                 **** Energy Check signals convergence ****

               *****************************************************
               *                     SUCCESS                       *
               *           SCF CONVERGED AFTER   1 CYCLES          *
               *****************************************************

Old exchange energy                            =    -37.607716564 Eh
New exchange energy                            =    -37.607749195 Eh
Exchange energy change after final integration =     -0.000032631 Eh
Total energy after final integration           =  -2847.718094079 Eh
Final COS-X integration done in                =     4.982 sec

----------------
TOTAL SCF ENERGY
----------------

Total Energy       :        -2847.71809408 Eh          -77490.34887 eV

Components:
Nuclear Repulsion  :         1521.06691660 Eh           41390.33504 eV
Electronic Energy  :        -4368.78501068 Eh         -118880.68392 eV
One Electron Energy:        -6993.01665679 Eh         -190289.65737 eV
Two Electron Energy:         2624.23164611 Eh           71408.97345 eV
Max COSX asymmetry :            0.00000147 Eh               0.00004 eV

Virial components:
Potential Energy   :        -5688.64269199 Eh         -154795.83732 eV
Kinetic Energy     :         2840.92459791 Eh           77305.48844 eV
Virial Ratio       :            2.00239130


DFT components:
N(Alpha)           :       72.999923394788 electrons
N(Beta)            :       71.999925689259 electrons
N(Total)           :      144.999849084047 electrons
E(X)               :     -149.539823135904 Eh       
E(C)               :       -6.525588013700 Eh       
E(XC)              :     -156.065411149604 Eh       
DFET-embed. en.    :        0.000000000000 Eh       

---------------
SCF CONVERGENCE
---------------

  Last Energy change         ...   -4.7344e-09  Tolerance :   1.0000e-06
  Last MAX-Density change    ...    4.3993e-06  Tolerance :   1.0000e-05
  Last RMS-Density change    ...    6.6814e-08  Tolerance :   1.0000e-06
  Last DIIS Error            ...    3.0566e-06  Tolerance :   1.0000e-06

             **** THE GBW FILE WAS UPDATED (input.gbw) ****
             **** DENSITY input.scfp WAS UPDATED ****
             **** ENERGY FILE WAS UPDATED (input.en.tmp) ****
----------------------
UHF SPIN CONTAMINATION
----------------------

Warning: in a DFT calculation there is little theoretical justification to 
         calculate <S**2> as in Hartree-Fock theory. We will do it anyways
         but you should keep in mind that the values have only limited relevance

Expectation value of <S**2>     :     0.765641
Ideal value S*(S+1) for S=0.5   :     0.750000
Deviation                       :     0.015641

             **** THE GBW FILE WAS UPDATED (input.gbw) ****
             **** DENSITY input.scfp WAS UPDATED ****
----------------
ORBITAL ENERGIES
----------------
                 SPIN UP ORBITALS
  NO   OCC          E(Eh)            E(eV) 
   0   1.0000    -196.606703     -5349.9404 
   1   1.0000     -88.561221     -2409.8733 
   2   1.0000     -88.560564     -2409.8554 
   3   1.0000     -88.558665     -2409.8038 
   4   1.0000     -88.557028     -2409.7592 
   5   1.0000     -21.982069      -598.1625 
   6   1.0000     -18.824516      -512.2411 
   7   1.0000     -18.489860      -503.1347 
   8   1.0000     -18.482680      -502.9393 
   9   1.0000     -18.482591      -502.9369 
  10   1.0000      -9.942371      -270.5457 
  11   1.0000      -9.934931      -270.3432 
  12   1.0000      -9.933980      -270.3173 
  13   1.0000      -9.933820      -270.3130 
  14   1.0000      -9.931624      -270.2532 
  15   1.0000      -9.928722      -270.1743 
  16   1.0000      -7.615382      -207.2251 
  17   1.0000      -7.614377      -207.1977 
  18   1.0000      -7.612998      -207.1602 
  19   1.0000      -7.611392      -207.1165 
  20   1.0000      -5.580578      -151.8553 
  21   1.0000      -5.579791      -151.8338 
  22   1.0000      -5.578428      -151.7967 
  23   1.0000      -5.576615      -151.7474 
  24   1.0000      -5.574380      -151.6866 
  25   1.0000      -5.573214      -151.6549 
  26   1.0000      -5.572630      -151.6390 
  27   1.0000      -5.572026      -151.6225 
  28   1.0000      -5.571557      -151.6098 
  29   1.0000      -5.570607      -151.5839 
  30   1.0000      -5.569922      -151.5653 
  31   1.0000      -5.568441      -151.5250 
  32   1.0000      -2.374709       -64.6191 
  33   1.0000      -1.417402       -38.5695 
  34   1.0000      -1.402808       -38.1723 
  35   1.0000      -1.402328       -38.1593 
  36   1.0000      -0.587058       -15.9747 
  37   1.0000      -0.551284       -15.0012 
  38   1.0000      -0.550561       -14.9815 
  39   1.0000      -0.469122       -12.7655 
  40   1.0000      -0.465544       -12.6681 
  41   1.0000      -0.403893       -10.9905 
  42   1.0000      -0.396522       -10.7899 
  43   1.0000      -0.337522        -9.1844 
  44   1.0000      -0.327418        -8.9095 
  45   1.0000      -0.304631        -8.2894 
  46   1.0000      -0.285519        -7.7694 
  47   1.0000      -0.213903        -5.8206 
  48   1.0000      -0.207281        -5.6404 
  49   1.0000      -0.202655        -5.5145 
  50   1.0000      -0.197948        -5.3864 
  51   1.0000      -0.160712        -4.3732 
  52   1.0000      -0.133597        -3.6354 
  53   1.0000      -0.131292        -3.5726 
  54   1.0000      -0.112035        -3.0486 
  55   1.0000      -0.107672        -2.9299 
  56   1.0000      -0.105854        -2.8804 
  57   1.0000      -0.081761        -2.2248 
  58   1.0000      -0.069183        -1.8826 
  59   1.0000      -0.063342        -1.7236 
  60   1.0000      -0.055601        -1.5130 
  61   1.0000      -0.045877        -1.2484 
  62   1.0000      -0.041006        -1.1158 
  63   1.0000      -0.035834        -0.9751 
  64   1.0000      -0.000349        -0.0095 
  65   1.0000       0.027691         0.7535 
  66   1.0000       0.030681         0.8349 
  67   1.0000       0.037412         1.0180 
  68   1.0000       0.045819         1.2468 
  69   1.0000       0.053828         1.4647 
  70   1.0000       0.064527         1.7559 
  71   1.0000       0.072907         1.9839 
  72   1.0000       0.081306         2.2125 
  73   0.0000       0.234936         6.3929 
  74   0.0000       0.246760         6.7147 
  75   0.0000       0.250318         6.8115 
  76   0.0000       0.251995         6.8571 
  77   0.0000       0.258863         7.0440 
  78   0.0000       0.263304         7.1649 
  79   0.0000       0.278590         7.5808 
  80   0.0000       0.288933         7.8623 
  81   0.0000       0.293606         7.9894 
  82   0.0000       0.295655         8.0452 
  83   0.0000       0.301309         8.1990 
  84   0.0000       0.306061         8.3283 
  85   0.0000       0.311914         8.4876 
  86   0.0000       0.317571         8.6415 
  87   0.0000       0.326362         8.8808 
  88   0.0000       0.332745         9.0545 
  89   0.0000       0.334875         9.1124 
  90   0.0000       0.355549         9.6750 
  91   0.0000       0.358463         9.7543 
  92   0.0000       0.363098         9.8804 
  93   0.0000       0.377345        10.2681 
  94   0.0000       0.379706        10.3323 
  95   0.0000       0.402285        10.9467 
  96   0.0000       0.410626        11.1737 
  97   0.0000       0.415996        11.3198 
  98   0.0000       0.428443        11.6585 
  99   0.0000       0.433048        11.7838 
 100   0.0000       0.440902        11.9976 
 101   0.0000       0.446228        12.1425 
 102   0.0000       0.448213        12.1965 
 103   0.0000       0.458125        12.4662 
 104   0.0000       0.463823        12.6213 
 105   0.0000       0.472024        12.8444 
 106   0.0000       0.480974        13.0880 
 107   0.0000       0.484953        13.1962 
 108   0.0000       0.494387        13.4530 
 109   0.0000       0.503791        13.7088 
 110   0.0000       0.520315        14.1585 
 111   0.0000       0.530581        14.4378 
 112   0.0000       0.538280        14.6473 
 113   0.0000       0.547341        14.8939 
 114   0.0000       0.557171        15.1614 
 115   0.0000       0.560304        15.2466 
 116   0.0000       0.577859        15.7243 
 117   0.0000       0.580489        15.7959 
 118   0.0000       0.583942        15.8899 
 119   0.0000       0.593985        16.1631 
 120   0.0000       0.609685        16.5904 
 121   0.0000       0.612780        16.6746 
 122   0.0000       0.619457        16.8563 
 123   0.0000       0.630334        17.1523 
 124   0.0000       0.633804        17.2467 
 125   0.0000       0.642905        17.4943 
 126   0.0000       0.645851        17.5745 
 127   0.0000       0.652915        17.7667 
 128   0.0000       0.658433        17.9169 
 129   0.0000       0.665542        18.1103 
 130   0.0000       0.670355        18.2413 
 131   0.0000       0.673248        18.3200 
 132   0.0000       0.675511        18.3816 
 133   0.0000       0.681255        18.5379 
 134   0.0000       0.686442        18.6790 
 135   0.0000       0.690992        18.8029 
 136   0.0000       0.696187        18.9442 
 137   0.0000       0.707104        19.2413 
 138   0.0000       0.708942        19.2913 
 139   0.0000       0.717559        19.5258 
 140   0.0000       0.721688        19.6381 
 141   0.0000       0.727824        19.8051 
 142   0.0000       0.736559        20.0428 
 143   0.0000       0.746640        20.3171 
 144   0.0000       0.760310        20.6891 
 145   0.0000       0.768019        20.8989 
 146   0.0000       0.782929        21.3046 
 147   0.0000       0.802648        21.8412 
 148   0.0000       0.813715        22.1423 
 149   0.0000       0.818205        22.2645 
 150   0.0000       0.831540        22.6273 
 151   0.0000       0.835839        22.7443 
 152   0.0000       0.867170        23.5969 
 153   0.0000       0.873560        23.7708 
 154   0.0000       0.893429        24.3114 
 155   0.0000       0.913303        24.8522 
 156   0.0000       0.919113        25.0103 
 157   0.0000       0.957672        26.0596 
 158   0.0000       0.991173        26.9712 
 159   0.0000       0.998948        27.1827 
 160   0.0000       1.001034        27.2395 
 161   0.0000       1.010191        27.4887 
 162   0.0000       1.018051        27.7026 
 163   0.0000       1.033285        28.1171 
 164   0.0000       1.043038        28.3825 
 165   0.0000       1.048129        28.5211 
 166   0.0000       1.068031        29.0626 
 167   0.0000       1.088991        29.6330 
 168   0.0000       1.098313        29.8866 
 169   0.0000       1.119183        30.4545 
 170   0.0000       1.139572        31.0093 
 171   0.0000       1.148845        31.2617 
 172   0.0000       1.159229        31.5442 
 173   0.0000       1.165444        31.7134 
 174   0.0000       1.179844        32.1052 
 175   0.0000       1.200254        32.6606 
 176   0.0000       1.249537        34.0016 
 177   0.0000       1.280196        34.8359 
 178   0.0000       1.296440        35.2779 
 179   0.0000       1.304717        35.5031 
 180   0.0000       1.327894        36.1338 
 181   0.0000       1.347894        36.6781 
 182   0.0000       1.371704        37.3260 
 183   0.0000       1.378557        37.5124 
 184   0.0000       1.430805        38.9342 
 185   0.0000       1.434781        39.0424 
 186   0.0000       1.445865        39.3440 
 187   0.0000       1.450636        39.4738 
 188   0.0000       1.455616        39.6093 
 189   0.0000       1.525907        41.5220 
 190   0.0000       1.530248        41.6402 
 191   0.0000       1.538267        41.8584 
 192   0.0000       1.554787        42.3079 
 193   0.0000       1.555713        42.3331 
 194   0.0000       1.565560        42.6010 
 195   0.0000       1.570799        42.7436 
 196   0.0000       1.572782        42.7976 
 197   0.0000       1.587735        43.2045 
 198   0.0000       1.619859        44.0786 
 199   0.0000       1.627536        44.2875 
 200   0.0000       1.632250        44.4158 
 201   0.0000       1.637093        44.5476 
 202   0.0000       1.654620        45.0245 
 203   0.0000       1.672722        45.5171 
 204   0.0000       1.681640        45.7597 
 205   0.0000       1.692996        46.0688 
 206   0.0000       1.701119        46.2898 
 207   0.0000       1.710311        46.5399 
 208   0.0000       1.720058        46.8052 
 209   0.0000       1.733776        47.1784 
 210   0.0000       1.741017        47.3755 
 211   0.0000       1.747532        47.5528 
 212   0.0000       1.781243        48.4701 
 213   0.0000       1.801935        49.0331 
 214   0.0000       1.804094        49.0919 
 215   0.0000       1.849259        50.3209 
 216   0.0000       1.852717        50.4150 
 217   0.0000       1.870831        50.9079 
 218   0.0000       1.880700        51.1764 
 219   0.0000       1.913028        52.0561 
 220   0.0000       1.927146        52.4403 
 221   0.0000       1.927661        52.4543 
 222   0.0000       1.937327        52.7173 
 223   0.0000       1.952504        53.1303 
 224   0.0000       1.990322        54.1594 
 225   0.0000       2.004457        54.5441 
 226   0.0000       2.013096        54.7791 
 227   0.0000       2.040324        55.5200 
 228   0.0000       2.045208        55.6529 
 229   0.0000       2.054356        55.9019 
 230   0.0000       2.058736        56.0211 
 231   0.0000       2.073359        56.4190 
 232   0.0000       2.095188        57.0130 
 233   0.0000       2.099295        57.1247 
 234   0.0000       2.102484        57.2115 
 235   0.0000       2.135175        58.1011 
 236   0.0000       2.155089        58.6430 
 237   0.0000       2.158426        58.7338 
 238   0.0000       2.171099        59.0786 
 239   0.0000       2.200878        59.8889 
 240   0.0000       2.202457        59.9319 
 241   0.0000       2.209044        60.1111 
 242   0.0000       2.227356        60.6094 
 243   0.0000       2.250830        61.2482 
 244   0.0000       2.256934        61.4143 
 245   0.0000       2.271920        61.8221 
 246   0.0000       2.280710        62.0613 
 247   0.0000       2.299898        62.5834 
 248   0.0000       2.306841        62.7723 
 249   0.0000       2.335879        63.5625 
 250   0.0000       2.346457        63.8503 
 251   0.0000       2.380585        64.7790 
 252   0.0000       2.386081        64.9286 
 253   0.0000       2.393691        65.1356 
 254   0.0000       2.414385        65.6988 
 255   0.0000       2.439020        66.3691 
 256   0.0000       2.462347        67.0039 
 257   0.0000       2.499553        68.0163 
 258   0.0000       2.516053        68.4653 
 259   0.0000       2.518398        68.5291 
 260   0.0000       2.548169        69.3392 
 261   0.0000       2.557386        69.5900 
 262   0.0000       2.580842        70.2283 
 263   0.0000       2.601596        70.7930 
 264   0.0000       2.612493        71.0896 
 265   0.0000       2.626114        71.4602 
 266   0.0000       2.639208        71.8165 
 267   0.0000       2.673920        72.7611 
 268   0.0000       2.684525        73.0496 
 269   0.0000       2.701353        73.5075 
 270   0.0000       2.745510        74.7091 
 271   0.0000       2.767635        75.3112 
 272   0.0000       2.773660        75.4751 
 273   0.0000       2.790553        75.9348 
 274   0.0000       2.812340        76.5277 
 275   0.0000       2.844611        77.4058 
 276   0.0000       2.865243        77.9672 
 277   0.0000       2.866792        78.0094 
 278   0.0000       2.877082        78.2894 
 279   0.0000       2.894099        78.7524 
 280   0.0000       2.897528        78.8458 
 281   0.0000       2.910336        79.1943 
 282   0.0000       2.927724        79.6674 
 283   0.0000       2.936819        79.9149 
 284   0.0000       2.940705        80.0207 
 285   0.0000       2.949990        80.2733 
 286   0.0000       2.967606        80.7527 
 287   0.0000       2.973152        80.9036 
 288   0.0000       2.982376        81.1546 
 289   0.0000       2.994424        81.4824 
 290   0.0000       3.028469        82.4088 
 291   0.0000       3.032231        82.5112 
 292   0.0000       3.042818        82.7993 
 293   0.0000       3.054543        83.1183 
 294   0.0000       3.077798        83.7511 
 295   0.0000       3.105947        84.5171 
 296   0.0000       3.147970        85.6606 
 297   0.0000       3.259585        88.6978 
 298   0.0000       3.276014        89.1449 
 299   0.0000       3.381145        92.0056 
 300   0.0000       3.399035        92.4924 
 301   0.0000       3.449996        93.8792 
 302   0.0000       3.491662        95.0129 
 303   0.0000       3.548997        96.5731 
 304   0.0000       3.552397        96.6656 
 305   0.0000       3.557540        96.8056 
 306   0.0000       3.584635        97.5429 
 307   0.0000       3.606561        98.1395 
 308   0.0000       3.631889        98.8287 
 309   0.0000       3.647822        99.2623 
 310   0.0000       3.660030        99.5945 
 311   0.0000       3.666350        99.7664 
 312   0.0000       3.690918       100.4350 
 313   0.0000       3.874262       105.4240 
 314   0.0000       3.890179       105.8572 
 315   0.0000       3.923967       106.7766 
 316   0.0000       4.044395       110.0536 
 317   0.0000       4.264596       116.0456 
 318   0.0000       4.578125       124.5771 
 319   0.0000       4.594223       125.0152 
 320   0.0000       4.597046       125.0920 
 321   0.0000       4.619259       125.6964 
 322   0.0000       4.648610       126.4951 
 323   0.0000       4.649314       126.5143 
 324   0.0000       5.219422       142.0277 
 325   0.0000       7.039162       191.5453 
 326   0.0000       7.100065       193.2026 
 327   0.0000       7.160012       194.8338 
 328   0.0000      18.840036       512.6634 
 329   0.0000      18.884379       513.8701 
 330   0.0000      19.008659       517.2519 
 331   0.0000      19.058541       518.6093 
 332   0.0000      19.841235       539.9074 
 333   0.0000      22.199665       604.0836 
 334   0.0000      22.218784       604.6039 
 335   0.0000      22.232920       604.9885 
 336   0.0000      22.268011       605.9434 
 337   0.0000      22.350506       608.1882 
 338   0.0000      22.362516       608.5150 
 339   0.0000      43.708951      1189.3810 
 340   0.0000     128.775439      3504.1579 
 341   0.0000     158.424883      4310.9602 
 342   0.0000     158.477074      4312.3804 
 343   0.0000     158.514299      4313.3934 
 344   0.0000     555.928911     15127.5947 
 345   0.0000    1893.327904     51520.0715 
 346   0.0000    6235.835380    169685.7073 
 347   0.0000   22016.260806    599092.9138 
 348   0.0000   90690.808782   2467822.3686 
 349   0.0000   462517.547085   12585742.3030 
 350   0.0000   1711386.101922   46569183.3648 
 351   0.0000   5079093.305799   138209155.2685 
 352   0.0000   14523636.821454   395208249.9110 

                 SPIN DOWN ORBITALS
  NO   OCC          E(Eh)            E(eV) 
   0   1.0000    -196.606845     -5349.9442 
   1   1.0000     -88.561381     -2409.8777 
   2   1.0000     -88.560739     -2409.8602 
   3   1.0000     -88.558768     -2409.8066 
   4   1.0000     -88.557001     -2409.7585 
   5   1.0000     -21.967023      -597.7531 
   6   1.0000     -18.827993      -512.3357 
   7   1.0000     -18.484661      -502.9932 
   8   1.0000     -18.466620      -502.5023 
   9   1.0000     -18.466133      -502.4890 
  10   1.0000      -9.942191      -270.5408 
  11   1.0000      -9.934800      -270.3397 
  12   1.0000      -9.933804      -270.3126 
  13   1.0000      -9.933763      -270.3114 
  14   1.0000      -9.931583      -270.2521 
  15   1.0000      -9.928741      -270.1748 
  16   1.0000      -7.615534      -207.2292 
  17   1.0000      -7.614548      -207.2024 
  18   1.0000      -7.613096      -207.1629 
  19   1.0000      -7.611368      -207.1159 
  20   1.0000      -5.580731      -151.8594 
  21   1.0000      -5.579956      -151.8383 
  22   1.0000      -5.578550      -151.8001 
  23   1.0000      -5.576631      -151.7479 
  24   1.0000      -5.574801      -151.6980 
  25   1.0000      -5.573667      -151.6672 
  26   1.0000      -5.572749      -151.6422 
  27   1.0000      -5.572430      -151.6335 
  28   1.0000      -5.571690      -151.6134 
  29   1.0000      -5.570943      -151.5931 
  30   1.0000      -5.569847      -151.5633 
  31   1.0000      -5.567975      -151.5123 
  32   1.0000      -2.329798       -63.3970 
  33   1.0000      -1.398416       -38.0528 
  34   1.0000      -1.341211       -36.4962 
  35   1.0000      -1.339401       -36.4470 
  36   1.0000      -0.594500       -16.1772 
  37   1.0000      -0.551187       -14.9986 
  38   1.0000      -0.550406       -14.9773 
  39   1.0000      -0.469066       -12.7639 
  40   1.0000      -0.465419       -12.6647 
  41   1.0000      -0.403941       -10.9918 
  42   1.0000      -0.396663       -10.7937 
  43   1.0000      -0.337671        -9.1885 
  44   1.0000      -0.327820        -8.9204 
  45   1.0000      -0.304599        -8.2886 
  46   1.0000      -0.285528        -7.7696 
  47   1.0000      -0.213841        -5.8189 
  48   1.0000      -0.207219        -5.6387 
  49   1.0000      -0.202524        -5.5110 
  50   1.0000      -0.197795        -5.3823 
  51   1.0000      -0.160585        -4.3697 
  52   1.0000      -0.133434        -3.6309 
  53   1.0000      -0.131023        -3.5653 
  54   1.0000      -0.112024        -3.0483 
  55   1.0000      -0.107608        -2.9282 
  56   1.0000      -0.105690        -2.8760 
  57   1.0000      -0.080585        -2.1928 
  58   1.0000      -0.067022        -1.8238 
  59   1.0000      -0.062431        -1.6988 
  60   1.0000      -0.055608        -1.5132 
  61   1.0000      -0.046871        -1.2754 
  62   1.0000      -0.041829        -1.1382 
  63   1.0000      -0.036965        -1.0059 
  64   1.0000       0.004291         0.1168 
  65   1.0000       0.028748         0.7823 
  66   1.0000       0.033627         0.9150 
  67   1.0000       0.045678         1.2430 
  68   1.0000       0.046887         1.2759 
  69   1.0000       0.061825         1.6823 
  70   1.0000       0.068680         1.8689 
  71   1.0000       0.074287         2.0215 
  72   0.0000       0.233774         6.3613 
  73   0.0000       0.251055         6.8316 
  74   0.0000       0.255596         6.9551 
  75   0.0000       0.261309         7.1106 
  76   0.0000       0.265360         7.2208 
  77   0.0000       0.266907         7.2629 
  78   0.0000       0.274183         7.4609 
  79   0.0000       0.281897         7.6708 
  80   0.0000       0.289341         7.8734 
  81   0.0000       0.294186         8.0052 
  82   0.0000       0.297039         8.0828 
  83   0.0000       0.302046         8.2191 
  84   0.0000       0.306828         8.3492 
  85   0.0000       0.312995         8.5170 
  86   0.0000       0.320862         8.7311 
  87   0.0000       0.327475         8.9110 
  88   0.0000       0.333646         9.0790 
  89   0.0000       0.335823         9.1382 
  90   0.0000       0.355823         9.6824 
  91   0.0000       0.359324         9.7777 
  92   0.0000       0.363956         9.9038 
  93   0.0000       0.377930        10.2840 
  94   0.0000       0.379941        10.3387 
  95   0.0000       0.403964        10.9924 
  96   0.0000       0.411605        11.2003 
  97   0.0000       0.418373        11.3845 
  98   0.0000       0.429496        11.6872 
  99   0.0000       0.433238        11.7890 
 100   0.0000       0.441549        12.0152 
 101   0.0000       0.446445        12.1484 
 102   0.0000       0.449087        12.2203 
 103   0.0000       0.458424        12.4744 
 104   0.0000       0.465120        12.6566 
 105   0.0000       0.472872        12.8675 
 106   0.0000       0.482574        13.1315 
 107   0.0000       0.485978        13.2241 
 108   0.0000       0.495106        13.4725 
 109   0.0000       0.505645        13.7593 
 110   0.0000       0.521564        14.1925 
 111   0.0000       0.534175        14.5356 
 112   0.0000       0.540565        14.7095 
 113   0.0000       0.548688        14.9306 
 114   0.0000       0.559174        15.2159 
 115   0.0000       0.562124        15.2962 
 116   0.0000       0.577972        15.7274 
 117   0.0000       0.581763        15.8306 
 118   0.0000       0.584600        15.9078 
 119   0.0000       0.595583        16.2066 
 120   0.0000       0.611370        16.6362 
 121   0.0000       0.613279        16.6882 
 122   0.0000       0.620003        16.8712 
 123   0.0000       0.630886        17.1673 
 124   0.0000       0.634848        17.2751 
 125   0.0000       0.643953        17.5229 
 126   0.0000       0.646396        17.5893 
 127   0.0000       0.653331        17.7780 
 128   0.0000       0.658515        17.9191 
 129   0.0000       0.666033        18.1237 
 130   0.0000       0.670598        18.2479 
 131   0.0000       0.673734        18.3332 
 132   0.0000       0.675907        18.3924 
 133   0.0000       0.681500        18.5445 
 134   0.0000       0.687738        18.7143 
 135   0.0000       0.692116        18.8334 
 136   0.0000       0.696528        18.9535 
 137   0.0000       0.709168        19.2974 
 138   0.0000       0.709444        19.3050 
 139   0.0000       0.717993        19.5376 
 140   0.0000       0.721842        19.6423 
 141   0.0000       0.728270        19.8172 
 142   0.0000       0.736945        20.0533 
 143   0.0000       0.746749        20.3201 
 144   0.0000       0.760253        20.6875 
 145   0.0000       0.768844        20.9213 
 146   0.0000       0.783261        21.3136 
 147   0.0000       0.803481        21.8638 
 148   0.0000       0.815144        22.1812 
 149   0.0000       0.818193        22.2642 
 150   0.0000       0.832095        22.6425 
 151   0.0000       0.837923        22.8010 
 152   0.0000       0.868500        23.6331 
 153   0.0000       0.871748        23.7215 
 154   0.0000       0.895371        24.3643 
 155   0.0000       0.913165        24.8485 
 156   0.0000       0.921095        25.0643 
 157   0.0000       0.958952        26.0944 
 158   0.0000       0.991818        26.9888 
 159   0.0000       0.999643        27.2017 
 160   0.0000       1.001997        27.2657 
 161   0.0000       1.010795        27.5051 
 162   0.0000       1.018533        27.7157 
 163   0.0000       1.033641        28.1268 
 164   0.0000       1.042962        28.3805 
 165   0.0000       1.048678        28.5360 
 166   0.0000       1.069930        29.1143 
 167   0.0000       1.090741        29.6806 
 168   0.0000       1.099691        29.9241 
 169   0.0000       1.120333        30.4858 
 170   0.0000       1.140222        31.0270 
 171   0.0000       1.155355        31.4388 
 172   0.0000       1.160399        31.5761 
 173   0.0000       1.168038        31.7839 
 174   0.0000       1.180992        32.1364 
 175   0.0000       1.201963        32.7071 
 176   0.0000       1.266559        34.4648 
 177   0.0000       1.280322        34.8393 
 178   0.0000       1.299636        35.3649 
 179   0.0000       1.307379        35.5756 
 180   0.0000       1.330079        36.1933 
 181   0.0000       1.350158        36.7397 
 182   0.0000       1.373889        37.3854 
 183   0.0000       1.388774        37.7904 
 184   0.0000       1.431247        38.9462 
 185   0.0000       1.436301        39.0837 
 186   0.0000       1.448597        39.4183 
 187   0.0000       1.453755        39.5587 
 188   0.0000       1.457413        39.6582 
 189   0.0000       1.527095        41.5544 
 190   0.0000       1.530460        41.6459 
 191   0.0000       1.539407        41.8894 
 192   0.0000       1.555017        42.3142 
 193   0.0000       1.555948        42.3395 
 194   0.0000       1.566038        42.6141 
 195   0.0000       1.571700        42.7681 
 196   0.0000       1.573125        42.8069 
 197   0.0000       1.587962        43.2106 
 198   0.0000       1.620167        44.0870 
 199   0.0000       1.628149        44.3042 
 200   0.0000       1.632471        44.4218 
 201   0.0000       1.637518        44.5591 
 202   0.0000       1.655146        45.0388 
 203   0.0000       1.673188        45.5298 
 204   0.0000       1.682745        45.7898 
 205   0.0000       1.694596        46.1123 
 206   0.0000       1.701876        46.3104 
 207   0.0000       1.717683        46.7405 
 208   0.0000       1.721539        46.8455 
 209   0.0000       1.735949        47.2376 
 210   0.0000       1.747966        47.5646 
 211   0.0000       1.751805        47.6690 
 212   0.0000       1.784382        48.5555 
 213   0.0000       1.804423        49.1008 
 214   0.0000       1.809856        49.2487 
 215   0.0000       1.849401        50.3247 
 216   0.0000       1.853706        50.4419 
 217   0.0000       1.872763        50.9605 
 218   0.0000       1.881253        51.1915 
 219   0.0000       1.913609        52.0719 
 220   0.0000       1.927683        52.4549 
 221   0.0000       1.929133        52.4944 
 222   0.0000       1.937679        52.7269 
 223   0.0000       1.955310        53.2067 
 224   0.0000       1.990659        54.1686 
 225   0.0000       2.004553        54.5467 
 226   0.0000       2.014960        54.8298 
 227   0.0000       2.040428        55.5229 
 228   0.0000       2.045426        55.6589 
 229   0.0000       2.054489        55.9055 
 230   0.0000       2.059312        56.0367 
 231   0.0000       2.073584        56.4251 
 232   0.0000       2.095525        57.0221 
 233   0.0000       2.099602        57.1331 
 234   0.0000       2.102615        57.2151 
 235   0.0000       2.135984        58.1231 
 236   0.0000       2.155234        58.6469 
 237   0.0000       2.158611        58.7388 
 238   0.0000       2.171323        59.0847 
 239   0.0000       2.201186        59.8973 
 240   0.0000       2.203157        59.9510 
 241   0.0000       2.209754        60.1305 
 242   0.0000       2.227862        60.6232 
 243   0.0000       2.250919        61.2506 
 244   0.0000       2.257401        61.4270 
 245   0.0000       2.272070        61.8262 
 246   0.0000       2.280795        62.0636 
 247   0.0000       2.300135        62.5898 
 248   0.0000       2.307164        62.7811 
 249   0.0000       2.335875        63.5624 
 250   0.0000       2.346862        63.8614 
 251   0.0000       2.380766        64.7839 
 252   0.0000       2.386248        64.9331 
 253   0.0000       2.393719        65.1364 
 254   0.0000       2.415245        65.7222 
 255   0.0000       2.439992        66.3956 
 256   0.0000       2.465024        67.0767 
 257   0.0000       2.499652        68.0190 
 258   0.0000       2.516587        68.4798 
 259   0.0000       2.518925        68.5434 
 260   0.0000       2.548361        69.3444 
 261   0.0000       2.557623        69.5965 
 262   0.0000       2.581544        70.2474 
 263   0.0000       2.601837        70.7996 
 264   0.0000       2.613144        71.1073 
 265   0.0000       2.626303        71.4653 
 266   0.0000       2.639581        71.8267 
 267   0.0000       2.674268        72.7705 
 268   0.0000       2.688231        73.1505 
 269   0.0000       2.701527        73.5123 
 270   0.0000       2.745712        74.7146 
 271   0.0000       2.768291        75.3290 
 272   0.0000       2.773801        75.4790 
 273   0.0000       2.790893        75.9441 
 274   0.0000       2.813220        76.5516 
 275   0.0000       2.844631        77.4063 
 276   0.0000       2.865266        77.9679 
 277   0.0000       2.866760        78.0085 
 278   0.0000       2.877152        78.2913 
 279   0.0000       2.893341        78.7318 
 280   0.0000       2.897223        78.8375 
 281   0.0000       2.909822        79.1803 
 282   0.0000       2.926157        79.6248 
 283   0.0000       2.934869        79.8619 
 284   0.0000       2.939020        79.9748 
 285   0.0000       2.946230        80.1710 
 286   0.0000       2.963528        80.6417 
 287   0.0000       2.972257        80.8792 
 288   0.0000       2.977633        81.0255 
 289   0.0000       2.990157        81.3663 
 290   0.0000       3.027288        82.3767 
 291   0.0000       3.031651        82.4954 
 292   0.0000       3.040147        82.7266 
 293   0.0000       3.050434        83.0065 
 294   0.0000       3.073813        83.6427 
 295   0.0000       3.106169        84.5232 
 296   0.0000       3.148122        85.6648 
 297   0.0000       3.259753        88.7024 
 298   0.0000       3.276110        89.1475 
 299   0.0000       3.381686        92.0204 
 300   0.0000       3.399363        92.5014 
 301   0.0000       3.451263        93.9136 
 302   0.0000       3.505982        95.4026 
 303   0.0000       3.549268        96.5805 
 304   0.0000       3.552322        96.6636 
 305   0.0000       3.560185        96.8776 
 306   0.0000       3.584869        97.5493 
[...]
Average number of points per batch           ...       59
Average number of grid points per atom       ...      424

Memory available               ... 920.2 MB
Memory needed per perturbation ...   8.2 MB
Perturbations treated per batch... 3
Number of batches              ... 1
     CP-SCF ITERATION   0:   4.2704e-02 (   1.5 sec   0/  3 done)
     CP-SCF ITERATION   1:   2.6699e-03 (   1.5 sec   0/  3 done)
     CP-SCF ITERATION   2:   9.2589e-04 (   1.5 sec   3/  3 done)
                    *** THE CP-SCF HAS CONVERGED ***

Forming final perturbed densities           ... done
Transforming perturbed density to AO basis  ... done

 Raw HFC matrix (all values in MHz): 
 -----------------------------------
                -0.5451               1.3566              -0.7045
                 1.3515              -1.4960              -0.5178
                -0.7136              -0.5188              -2.3480

 A(FC)          -1.4666              -1.4666              -1.4666
 A(SD)           2.1467              -0.9958              -1.1510
 A(ORB+DIA)     -0.0100               0.0077               0.0131    A(PC) =   0.0036
 A(ORB)         -0.0105               0.0080               0.0133    A(PC) =   0.0036
 A(DIA)          0.0005              -0.0003              -0.0002    A(PC) =  -0.0000
             ----------           ----------           ----------
 A(Tot)          0.6701              -2.4546              -2.6045    A(iso)=   -1.4630
 Orientation: 
  X          -0.7824166            0.5995785            0.1683149
  Y          -0.5571946           -0.7947035            0.2407917
  Z           0.2781340            0.0946152            0.9558710

Notes:  (1) The A matrix conforms to the "SAI" spin Hamiltonian convention.
        (2) Tensor is right-handed.

 Raw EFG matrix (all values in a.u.**-3):
 -----------------------------------
            -0.0352       0.1881      -0.0284
             0.1881       0.1779      -0.0471
            -0.0284      -0.0471      -0.1427

 V(El)       0.5838       0.7979      -1.3817
 V(Nuc)     -0.7284      -0.9477       1.6761
         ----------   ----------   ----------
 V(Tot)     -0.1447      -0.1498       0.2944 
 Orientation: 
  X       0.8412169    0.2061256   -0.4998663
  Y      -0.5147315    0.0222390   -0.8570629
  Z      -0.1655461    0.9782728    0.1248072

Note: Tensor is right-handed


 Quadrupole tensor eigenvalues (in MHz;Q= 0.0029 I=  1.0)
  e**2qQ            =     0.197702 MHz 
  e**2qQ/(4I*(2I-1))=     0.049425 MHz 
  eta               =     0.017374
  NOTE: the diagonal representation of the SH term I*Q*I = e**2qQ/(4I(2I-1))*[-(1-eta),-(1+eta),2]

 RHO(0)=      0.447993262 a.u.**-3

 -----------------------------------------------------------
 Nucleus  23H : A:ISTP=    1 I=  0.5 P=533.5514 MHz/au**3
                Q:ISTP=    2 I=  1.0 Q=  0.0029 barn     
 -----------------------------------------------------------
 Solving for nuclear perturbation:
Forming RHS of the CP-SCF equations         ... 
Calc. nucleus orbit integrals (SHARK)       ... done

------------------------------------------------------------------------------
                           ORCA CP-SCF CALCULATION
------------------------------------------------------------------------------

Input orbitals are from        ... input.gbw
Input Perturbation             ... input.pin.tmp
Wavefunction output            ... input.pout.tmp
Perturbation mode              ... Imaginary perturbation
Solver                         ... POPLE
Max. number of iterations      ... 64
Convergence tolerance          ... 1.000e-03
Integral handling              ... Direct
DFT GridXC                     ... 1
COSX GridX                     ... 1
COSX IntAccX                   ... 3.067
COSX Algorithm                 ... Auto
Number of perturbations        ... 3
Number of operators            ... 2
Orbital ranges used for CP-SCF:
 Operator 0:  Orbitals   0... 72  to  73...352
 Operator 1:  Orbitals   0... 71  to  72...352
Variables per perturbation     ... 40672
DFT calculation                         ... on
XC functional terms                     ... off
Hybrid DFT                              ... on
   Exchange mixing (SCF)                ...  0.200
   Exchange mixing (CP-SCF)             ...  0.200
   GGA exch. scaling(SCF)               ...  0.720
   GGA exch. scaling (CP-SCF)           ...  0.720
   GGA corr. scaling (SCF)              ...  0.810
   GGA corr. scaling (CP-SCF)           ...  0.810

CP-SCF GRID
-----------

General Integration Accuracy     IntAcc      ... 3.467
Radial Grid Type                 RadialGrid  ... OptM3 with GC (2021)
Angular Grid (max. ang.)         AngularGrid ... 1 (Lebedev-50)
Angular grid pruning method      GridPruning ... 4 (adaptive)
Weight generation scheme         WeightScheme... Becke
Basis function cutoff            BFCut       ... 1.0000e-10
Integration weight cutoff        WCut        ... 1.0000e-14
Angular grids for H and He will be reduced by one unit
Partially contracted basis set               ... off
Rotationally invariant grid construction     ... off

Total number of grid points                  ...    23533
Total number of batches                      ...      379
Average number of points per batch           ...       62
Average number of grid points per atom       ...      981

CP-SCF GRIDX
------------

General Integration Accuracy     IntAcc      ... 3.067
Radial Grid Type                 RadialGrid  ... OptM3 with GC (2021)
Angular Grid (max. ang.)         AngularGrid ... 1 (Lebedev-50)
Angular grid pruning method      GridPruning ... 4 (adaptive)
Weight generation scheme         WeightScheme... Becke
Basis function cutoff            BFCut       ... 1.0000e-10
Integration weight cutoff        WCut        ... 1.0000e-14
Angular grids for H and He will be reduced by one unit
Partially contracted basis set               ... on
Rotationally invariant grid construction     ... off

Total number of grid points                  ...    10168
Total number of batches                      ...      171
Average number of points per batch           ...       59
Average number of grid points per atom       ...      424

Memory available               ... 919.7 MB
Memory needed per perturbation ...   8.2 MB
Perturbations treated per batch... 3
Number of batches              ... 1
     CP-SCF ITERATION   0:   4.8626e-02 (   1.4 sec   0/  3 done)
     CP-SCF ITERATION   1:   5.9204e-03 (   1.4 sec   0/  3 done)
     CP-SCF ITERATION   2:   1.3428e-03 (   1.4 sec   0/  3 done)
     CP-SCF ITERATION   3:   1.9087e-04 (   1.5 sec   3/  3 done)
                    *** THE CP-SCF HAS CONVERGED ***

Forming final perturbed densities           ... done
Transforming perturbed density to AO basis  ... done

 Raw HFC matrix (all values in MHz): 
 -----------------------------------
                 1.4413               2.0566              -2.7990
                 2.0431              -0.8823              -1.6020
                -2.7862              -1.5970               0.6404

 A(FC)           0.3948               0.3948               0.3948
 A(SD)          -2.1633              -2.4935               4.6568
 A(ORB+DIA)      0.0383               0.0209              -0.0442    A(PC) =   0.0050
 A(ORB)          0.0384               0.0212              -0.0454    A(PC) =   0.0047
 A(DIA)         -0.0001              -0.0003               0.0012    A(PC) =   0.0003
             ----------           ----------           ----------
 A(Tot)         -1.7302              -2.0777               5.0073    A(iso)=    0.3998
 Orientation: 
  X           0.4915635            0.5224732            0.6966973
  Y           0.3341774           -0.8519509            0.4031193
  Z           0.8041709            0.0346617           -0.5933867

Notes:  (1) The A matrix conforms to the "SAI" spin Hamiltonian convention.
        (2) Tensor is right-handed.

 Raw EFG matrix (all values in a.u.**-3):
 -----------------------------------
            -0.0058       0.0319       0.1991
             0.0319      -0.1404       0.0483
             0.1991       0.0483       0.1462

 V(El)       0.4132       0.5710      -0.9842
 V(Nuc)     -0.5559      -0.7194       1.2752
         ----------   ----------   ----------
 V(Tot)     -0.1427      -0.1483       0.2911 
 Orientation: 
  X       0.8230620   -0.0833141   -0.5618076
  Y      -0.1892523   -0.9728817   -0.1329843
  Z      -0.5354929    0.2157776   -0.8165093

Note: Tensor is right-handed


 Quadrupole tensor eigenvalues (in MHz;Q= 0.0029 I=  1.0)
  e**2qQ            =     0.195438 MHz 
  e**2qQ/(4I*(2I-1))=     0.048859 MHz 
  eta               =     0.019407
  NOTE: the diagonal representation of the SH term I*Q*I = e**2qQ/(4I(2I-1))*[-(1-eta),-(1+eta),2]

 RHO(0)=      0.445362580 a.u.**-3

 -----------------------------------------------------------
 Nucleus   0V : A:ISTP=   51 I=  3.5 P=140.5173 MHz/au**3
                Q:ISTP=   51 I=  3.5 Q= -0.0430 barn     
 -----------------------------------------------------------
 Solving for nuclear perturbation:
Forming RHS of the CP-SCF equations         ... 
Calc. nucleus orbit integrals (SHARK)       ... done

------------------------------------------------------------------------------
                           ORCA CP-SCF CALCULATION
------------------------------------------------------------------------------

Input orbitals are from        ... input.gbw
Input Perturbation             ... input.pin.tmp
Wavefunction output            ... input.pout.tmp
Perturbation mode              ... Imaginary perturbation
Solver                         ... POPLE
Max. number of iterations      ... 64
Convergence tolerance          ... 1.000e-03
Integral handling              ... Direct
DFT GridXC                     ... 1
COSX GridX                     ... 1
COSX IntAccX                   ... 3.067
COSX Algorithm                 ... Auto
Number of perturbations        ... 3
Number of operators            ... 2
Orbital ranges used for CP-SCF:
 Operator 0:  Orbitals   0... 72  to  73...352
 Operator 1:  Orbitals   0... 71  to  72...352
Variables per perturbation     ... 40672
DFT calculation                         ... on
XC functional terms                     ... off
Hybrid DFT                              ... on
   Exchange mixing (SCF)                ...  0.200
   Exchange mixing (CP-SCF)             ...  0.200
   GGA exch. scaling(SCF)               ...  0.720
   GGA exch. scaling (CP-SCF)           ...  0.720
   GGA corr. scaling (SCF)              ...  0.810
   GGA corr. scaling (CP-SCF)           ...  0.810

CP-SCF GRID
-----------

General Integration Accuracy     IntAcc      ... 3.467
Radial Grid Type                 RadialGrid  ... OptM3 with GC (2021)
Angular Grid (max. ang.)         AngularGrid ... 1 (Lebedev-50)
Angular grid pruning method      GridPruning ... 4 (adaptive)
Weight generation scheme         WeightScheme... Becke
Basis function cutoff            BFCut       ... 1.0000e-10
Integration weight cutoff        WCut        ... 1.0000e-14
Angular grids for H and He will be reduced by one unit
Partially contracted basis set               ... off
Rotationally invariant grid construction     ... off

Total number of grid points                  ...    23533
Total number of batches                      ...      379
Average number of points per batch           ...       62
Average number of grid points per atom       ...      981

CP-SCF GRIDX
------------

General Integration Accuracy     IntAcc      ... 3.067
Radial Grid Type                 RadialGrid  ... OptM3 with GC (2021)
Angular Grid (max. ang.)         AngularGrid ... 1 (Lebedev-50)
Angular grid pruning method      GridPruning ... 4 (adaptive)
Weight generation scheme         WeightScheme... Becke
Basis function cutoff            BFCut       ... 1.0000e-10
Integration weight cutoff        WCut        ... 1.0000e-14
Angular grids for H and He will be reduced by one unit
Partially contracted basis set               ... on
Rotationally invariant grid construction     ... off

Total number of grid points                  ...    10168
Total number of batches                      ...      171
Average number of points per batch           ...       59
Average number of grid points per atom       ...      424

Memory available               ... 919.2 MB
Memory needed per perturbation ...   8.2 MB
Perturbations treated per batch... 3
Number of batches              ... 1
     CP-SCF ITERATION   0:   1.3613e+01 (   1.4 sec   0/  3 done)
     CP-SCF ITERATION   1:   2.4158e+00 (   1.4 sec   0/  3 done)
     CP-SCF ITERATION   2:   4.3961e-01 (   1.4 sec   0/  3 done)
     CP-SCF ITERATION   3:   1.1027e-01 (   1.4 sec   0/  3 done)
     CP-SCF ITERATION   4:   2.8193e-02 (   1.4 sec   0/  3 done)
     CP-SCF ITERATION   5:   4.9655e-03 (   1.4 sec   0/  3 done)
     CP-SCF ITERATION   6:   9.9781e-04 (   1.4 sec   3/  3 done)
                    *** THE CP-SCF HAS CONVERGED ***

Forming final perturbed densities           ... done
Transforming perturbed density to AO basis  ... done

 Raw HFC matrix (all values in MHz): 
 -----------------------------------
               -94.4758             -22.1836              66.5403
               -22.7392            -115.2378              84.9779
                68.4233              84.1131            -343.0280

 A(FC)        -172.2527            -172.2527            -172.2527
 A(SD)         103.1822              93.4128            -196.5950
 A(ORB+DIA)     -8.2025              -8.4323             -19.3485    A(PC) = -11.9944
 A(ORB)         -8.2028              -8.4322             -19.3485    A(PC) = -11.9945
 A(DIA)          0.0002              -0.0001               0.0000    A(PC) =   0.0000
             ----------           ----------           ----------
 A(Tot)        -77.2731             -87.2723            -388.1962    A(iso)= -184.2472
 Orientation: 
  X           0.9722218           -0.0276381           -0.2324240
  Y          -0.0462138            0.9507896           -0.3063714
  Z           0.2294539            0.3086022            0.9231011

Notes:  (1) The A matrix conforms to the "SAI" spin Hamiltonian convention.
        (2) Tensor is right-handed.

 Raw EFG matrix (all values in a.u.**-3):
 -----------------------------------
            -0.2133       0.0982      -0.1374
             0.0982      -0.1237      -0.2010
            -0.1374      -0.2010       0.3370

 V(El)      -0.1231      -0.2896       0.4127
 V(Nuc)     -0.0528       0.0130       0.0398
         ----------   ----------   ----------
 V(Tot)     -0.1759      -0.2766       0.4525 
 Orientation: 
  X       0.4640072    0.8529914    0.2389625
  Y       0.7754627   -0.5215351    0.3558915
  Z       0.4281997    0.0201703   -0.9034590

Note: Tensor is right-handed


 Quadrupole tensor eigenvalues (in MHz;Q=-0.0430 I=  3.5)
  e**2qQ            =    -4.571815 MHz 
  e**2qQ/(4I*(2I-1))=    -0.054426 MHz 
  eta               =     0.222420
  NOTE: the diagonal representation of the SH term I*Q*I = e**2qQ/(4I(2I-1))*[-(1-eta),-(1+eta),2]

 RHO(0)=   8115.165708273 a.u.**-3


--------------------------------------------------------------------------------
----------------------------------------------------------------------------
                           ORCA EULER ANGLE PROGRAM
----------------------------------------------------------------------------

Only g-tensor available        -->  using g-tensor as reference tensor

Reference tensor               ...  g

g-tensor ordering              ...  |g_min> --> |gx>
                                    |g_mid> --> |gy>
                                    |g_max> --> |gz>

A- and EFG-tensor ordering     ...  the axes |Ax>, |Qx>, |Ay>, etc. are assigned
                                    such that the Euler rotation is minimal. You
                                    can find the respective eigenvalues as Ax,
                                    EFGx, Ay, etc. in the tables below.
                                    The relation of |Ax>, |Ay>,  etc. to Amin, Amid, etc.
                                    (as printed in the ORCA EPR/NMR CALCULATION Output)
                                    is obtained in the detailed printout.

Euler rotation around          ...  z - y - z
   First rotation              -->  by alpha around z
   Second rotation             -->  by beta around y'
   Third rotation              -->  by gamma around z''
   Positive / Negative angle   -->  clockwise / counterclockwise rotation

Plot EFG-tensors                    (-)
Plot HFC-tensors                    (-)
Detailed Printout                   (-)

-------------------------------------------------------------------------
          Euler rotation of hyperfine tensor to g-tensor
-------------------------------------------------------------------------

-------------------------------------------------------------------
 Atom  |   Alpha    Beta    Gamma   |   Ax       Ay       Az 
       |          [degrees]         |           [MHz]         
-------------------------------------------------------------------
  9H     -119.0     27.8    114.1      -1.97     2.15    -2.15
 10H     -155.6     34.6   -175.7      -1.38     1.94    -1.32
 11H       88.9     31.3    -86.3      -2.64    -2.31     5.22
 12H      -95.8     45.8    122.6      -0.26     2.23    -0.17
 13H      140.2     30.0   -164.2       2.55    -1.88    -1.51
 14H       45.7     41.2    -16.1      -3.01    -2.83     0.24
 18H       31.9     25.3    -36.7      -2.36    -2.17     1.04
 19H       16.6     49.1    -44.8      -3.27    -3.62     3.15
 20H      117.2     33.8   -109.3      -0.09    -0.11     2.33
 21H      -80.3     40.1     85.2      -0.15     2.23    -0.10
 22H      -39.5     36.5     10.5      -2.60     0.67    -2.45
 23H       21.1     36.1     21.4       5.01    -1.73    -2.08
  0V      -54.3     47.5     73.4    -388.20   -77.27   -87.27
-------------------------------------------------------------------


-------------------------------------------------------------------------------
    Euler rotation of Electric Field Gradient (EFG) tensor to g-tensor
-------------------------------------------------------------------------------

-------------------------------------------------------------------
 Atom  |   Alpha    Beta    Gamma  |   EFGx     EFGy     EFGz
       |          [degrees]        |         [a.u.**-3]       
-------------------------------------------------------------------
  9H      -74.1     32.0    106.9      0.29    -0.15    -0.14
 10H      -80.5     28.8     38.7      0.29    -0.15    -0.14
 11H       49.7     24.3    -82.5      0.28    -0.14    -0.14
 12H       40.1     40.4    -70.1     -0.14    -0.14     0.28
 13H        8.1     38.2    -39.0      0.29    -0.14    -0.15
 14H      -60.7     28.6     21.8     -0.15    -0.14     0.29
 18H      -34.8     23.7     12.7     -0.15    -0.14     0.29
 19H      -16.8     40.5      5.5      0.29    -0.14    -0.15
 20H     -153.5     37.2    172.8     -0.14    -0.15     0.28
 21H     -165.0     23.3   -163.4     -0.14     0.28    -0.15
 22H        9.2     19.3    -34.4     -0.15     0.29    -0.14
 23H       80.6     21.7   -123.8      0.29    -0.15    -0.14
  0V       36.3     29.7    -28.3      0.45    -0.18    -0.28
-------------------------------------------------------------------


Maximum memory used throughout the entire EPRNMR-calculation: 139.1 MB

Timings for individual modules:

Sum of individual times         ...      818.647 sec (=  13.644 min)
GTO integral calculation        ...        1.623 sec (=   0.027 min)   0.2 %
Spin-Orbit-Coupling Matrices    ...        4.598 sec (=   0.077 min)   0.6 %
SCF iterations                  ...       15.585 sec (=   0.260 min)   1.9 %
EPR/NMR calculation             ...      796.841 sec (=  13.281 min)  97.3 %
                             ****ORCA TERMINATED NORMALLY****
TOTAL RUN TIME: 0 days 0 hours 13 minutes 40 seconds 629 msec
