/home/timkrog/spindecoh/qubcand/estruct/Stanten/Chen2/DFT/redo
input.inp
relax.xyz
start.gbw
11045

                                 *****************
                                 * O   R   C   A *
                                 *****************

                                            #,                                       
                                            ###                                      
                                            ####                                     
                                            #####                                    
                                            ######                                   
                                           ########,                                 
                                     ,,################,,,,,                         
                               ,,#################################,,                 
                          ,,##########################################,,             
                       ,#########################################, ''#####,          
                    ,#############################################,,   '####,        
                  ,##################################################,,,,####,       
                ,###########''''           ''''###############################       
              ,#####''   ,,,,##########,,,,          '''####'''          '####       
            ,##' ,,,,###########################,,,                        '##       
           ' ,,###''''                  '''############,,,                           
         ,,##''                                '''############,,,,        ,,,,,,###''
      ,#''                                            '''#######################'''  
     '                                                          ''''####''''         
             ,#######,   #######,   ,#######,      ##                                
            ,#'     '#,  ##    ##  ,#'     '#,    #''#        ######   ,####,        
            ##       ##  ##   ,#'  ##            #'  '#       #        #'  '#        
            ##       ##  #######   ##           ,######,      #####,   #    #        
            '#,     ,#'  ##    ##  '#,     ,#' ,#      #,         ##   #,  ,#        
             '#######'   ##     ##  '#######'  #'      '#     #####' # '####'        



                  #######################################################
                  #                        -***-                        #
                  #          Department of theory and spectroscopy      #
                  #    Directorship and core code : Frank Neese         #
                  #        Max Planck Institute fuer Kohlenforschung    #
                  #                Kaiser Wilhelm Platz 1               #
                  #                 D-45470 Muelheim/Ruhr               #
                  #                      Germany                        #
                  #                                                     #
                  #                  All rights reserved                #
                  #                        -***-                        #
                  #######################################################


                         Program Version 5.0.4 -  RELEASE  -


 With contributions from (in alphabetic order):
   Daniel Aravena         : Magnetic Suceptibility
   Michael Atanasov       : Ab Initio Ligand Field Theory (pilot matlab implementation)
   Alexander A. Auer      : GIAO ZORA, VPT2 properties, NMR spectrum
   Ute Becker             : Parallelization
   Giovanni Bistoni       : ED, misc. LED, open-shell LED, HFLD
   Martin Brehm           : Molecular dynamics
   Dmytro Bykov           : SCF Hessian
   Vijay G. Chilkuri      : MRCI spin determinant printing, contributions to CSF-ICE
   Dipayan Datta          : RHF DLPNO-CCSD density
   Achintya Kumar Dutta   : EOM-CC, STEOM-CC
   Dmitry Ganyushin       : Spin-Orbit,Spin-Spin,Magnetic field MRCI
   Miquel Garcia          : C-PCM and meta-GGA Hessian, CC/C-PCM, Gaussian charge scheme
   Yang Guo               : DLPNO-NEVPT2, F12-NEVPT2, CIM, IAO-localization
   Andreas Hansen         : Spin unrestricted coupled pair/coupled cluster methods
   Benjamin Helmich-Paris : MC-RPA, TRAH-SCF, COSX integrals
   Lee Huntington         : MR-EOM, pCC
   Robert Izsak           : Overlap fitted RIJCOSX, COSX-SCS-MP3, EOM
   Marcus Kettner         : VPT2
   Christian Kollmar      : KDIIS, OOCD, Brueckner-CCSD(T), CCSD density, CASPT2, CASPT2-K
   Simone Kossmann        : Meta GGA functionals, TD-DFT gradient, OOMP2, MP2 Hessian
   Martin Krupicka        : Initial AUTO-CI
   Lucas Lang             : DCDCAS
   Marvin Lechner         : AUTO-CI (C++ implementation), FIC-MRCC
   Dagmar Lenk            : GEPOL surface, SMD
   Dimitrios Liakos       : Extrapolation schemes; Compound Job, initial MDCI parallelization
   Dimitrios Manganas     : Further ROCIS development; embedding schemes
   Dimitrios Pantazis     : SARC Basis sets
   Anastasios Papadopoulos: AUTO-CI, single reference methods and gradients
   Taras Petrenko         : DFT Hessian,TD-DFT gradient, ASA, ECA, R-Raman, ABS, FL, XAS/XES, NRVS
   Peter Pinski           : DLPNO-MP2, DLPNO-MP2 Gradient
   Christoph Reimann      : Effective Core Potentials
   Marius Retegan         : Local ZFS, SOC
   Christoph Riplinger    : Optimizer, TS searches, QM/MM, DLPNO-CCSD(T), (RO)-DLPNO pert. Triples
   Tobias Risthaus        : Range-separated hybrids, TD-DFT gradient, RPA, STAB
   Michael Roemelt        : Original ROCIS implementation
   Masaaki Saitow         : Open-shell DLPNO-CCSD energy and density
   Barbara Sandhoefer     : DKH picture change effects
   Avijit Sen             : IP-ROCIS
   Kantharuban Sivalingam : CASSCF convergence, NEVPT2, FIC-MRCI
   Bernardo de Souza      : ESD, SOC TD-DFT
   Georgi Stoychev        : AutoAux, RI-MP2 NMR, DLPNO-MP2 response
   Willem Van den Heuvel  : Paramagnetic NMR
   Boris Wezisla          : Elementary symmetry handling
   Frank Wennmohs         : Technical directorship


 We gratefully acknowledge several colleagues who have allowed us to
 interface, adapt or use parts of their codes:
   Stefan Grimme, W. Hujo, H. Kruse, P. Pracht,  : VdW corrections, initial TS optimization,
                  C. Bannwarth, S. Ehlert          DFT functionals, gCP, sTDA/sTD-DF
   Ed Valeev, F. Pavosevic, A. Kumar             : LibInt (2-el integral package), F12 methods
   Garnet Chan, S. Sharma, J. Yang, R. Olivares  : DMRG
   Ulf Ekstrom                                   : XCFun DFT Library
   Mihaly Kallay                                 : mrcc  (arbitrary order and MRCC methods)
   Jiri Pittner, Ondrej Demel                    : Mk-CCSD
   Frank Weinhold                                : gennbo (NPA and NBO analysis)
   Christopher J. Cramer and Donald G. Truhlar   : smd solvation model
   Lars Goerigk                                  : TD-DFT with DH, B97 family of functionals
   V. Asgeirsson, H. Jonsson                     : NEB implementation
   FAccTs GmbH                                   : IRC, NEB, NEB-TS, DLPNO-Multilevel, CI-OPT
                                                   MM, QMMM, 2- and 3-layer-ONIOM, Crystal-QMMM,
                                                   LR-CPCM, SF, NACMEs, symmetry and pop. for TD-DFT,
                                                   nearIR, NL-DFT gradient (VV10), updates on ESD,
                                                   ML-optimized integration grids
   S Lehtola, MJT Oliveira, MAL Marques          : LibXC Library
   Liviu Ungur et al                             : ANISO software


 Your calculation uses the libint2 library for the computation of 2-el integrals
 For citations please refer to: http://libint.valeyev.net

 Your ORCA version has been built with support for libXC version: 5.1.0
 For citations please refer to: https://tddft.org/programs/libxc/

 This ORCA versions uses:
   CBLAS   interface :  Fast vector & matrix operations
   LAPACKE interface :  Fast linear algebra routines
   SCALAPACK package :  Parallel linear algebra routines
   Shared memory     :  Shared parallel matrices
   BLAS/LAPACK       :  OpenBLAS 0.3.15  USE64BITINT DYNAMIC_ARCH NO_AFFINITY Prescott SINGLE_THREADED
        Core in use  :  Prescott
   Copyright (c) 2011-2014, The OpenBLAS Project




***************************************
The coordinates will be read from file: relax.xyz
***************************************


================================================================================

----- Orbital basis set information -----
Your calculation utilizes the basis: TZVP 

The basis set includes element-specific modifications.

Your calculation utilizes the basis: CP(PPP) 

----- AuxJ basis set information -----
Your calculation utilizes the auxiliary basis: def2/J
   F. Weigend, Phys. Chem. Chem. Phys. 8, 1057 (2006).

================================================================================
                                        WARNINGS
                       Please study these warnings very carefully!
================================================================================


WARNING: your system is open-shell and RHF/RKS was chosen
  ===> : WILL SWITCH to UHF/UKS


INFO   : the flag for use of the SHARK integral package has been found!

================================================================================
                                       INPUT FILE
================================================================================
NAME = input.inp
|  1> ! nofrozencore ReducedPop printbasis
|  2> ! B3LYP TZVP
|  3> ! moread
|  4> %moinp "start.gbw"
|  5> 
|  6> %basis
|  7> newgto V "CP(PPP)" end
|  8> end
|  9> 
| 10> %pal
| 11> nprocs 16
| 12> end
| 13> 
| 14> % sym SymThresh 1e-2 end
| 15> * xyzfile -2 2 relax.xyz
| 16> 
| 17> % eprnmr
| 18> 
| 19> gtensor true
| 20> 
| 21> Nuclei = all H {aiso,adip,aorb,fgrad,rho}
| 22> Nuclei = all V {aiso,adip,aorb,fgrad,rho}
| 23> 
| 24> end
| 25> 
| 26>                          ****END OF INPUT****
================================================================================

------------------------------------------------------------------------------
                            SYMMETRY HANDLING SETUP
------------------------------------------------------------------------------

------------------
SYMMETRY DETECTION
------------------
The point group will now be determined using a tolerance of 1.0000e-02.
Splitting atom subsets according to nuclear charge, mass and basis set.
Splitting atom subsets according to distance from the molecule's center.
Identifying relative distance patterns of the atoms.
Splitting atom subsets according to atoms' relative distance patterns.
Bring atoms of each subset into input order.
The molecule is neither linear nor planar.

WARNING (ORCA_SYM): A non-planar off-center atom subset has been encountered
in function TSymmetryFinder::FilterSubsetShapes() which cannot occur under
regular conditions. The full point group may not be assigned correctly. If the
symmetry appears to be too low, please try increasing the cleaning tolerance
using option SymThresh in the %symmetry input block. If the problem persists,
you may post a message in the ORCA forum.

WARNING (ORCA_SYM): A non-planar off-center atom subset has been encountered
in function TSymmetryFinder::FilterSubsetShapes() which cannot occur under
regular conditions. The full point group may not be assigned correctly. If the
symmetry appears to be too low, please try increasing the cleaning tolerance
using option SymThresh in the %symmetry input block. If the problem persists,
you may post a message in the ORCA forum.

WARNING (ORCA_SYM): A non-planar off-center atom subset has been encountered
in function TSymmetryFinder::FilterSubsetShapes() which cannot occur under
regular conditions. The full point group may not be assigned correctly. If the
symmetry appears to be too low, please try increasing the cleaning tolerance
using option SymThresh in the %symmetry input block. If the problem persists,
you may post a message in the ORCA forum.
There is at least one atom subset not centered around the molecule's center.
The molecule does not have a center of inversion.
Analyzing the first atom subset for its symmetry.
The atom subset represents a 4-gon with alternating side lengths
that is not centered around the molecule's center.
Testing point group C2v.
Test failed.
Testing point group C2.
Test failed.
Testing point group Cs.
Test failed.
Testing point group Cs.
Test failed.
No testing is needed for point group C1.
This point group has been found:    C1
Largest non-degenerate subgroup:    C1


Mass-centered symmetry-perfected Cartesians (point group C1):

Atom          Symmetry-perfected Cartesians (x, y, z; au)
  0      -0.070647886020   -0.040790486624    2.112396794787
  1       3.113100626438    3.085139471378    0.872809168112
  2      -3.189257356019    3.044760743662    0.639484811021
  3       3.141218638477   -3.074061282732    0.732490625916
  4      -3.166899938559   -3.115741307378    0.560158449422
  5      -0.161646813873   -0.092800517002    5.127812837058
  6      -5.968928778746    1.243753856155    0.198237077393
  7      -5.958705802138   -1.324316627682    0.162553810892
  8       5.930029499440    1.307436888671    0.618553514830
  9       5.942362565196   -1.260436657391    0.560172178427
 10      -8.804602290463    3.080568480949   -0.258619430456
 11      -8.779135245201   -3.168320748848   -0.356762466734
 12       8.805983493621   -3.080977265615    0.228805151246
 13       8.777349105309    3.167896352439    0.372424375156
 14      -9.594958541754   -2.434115643058   -3.670015706514
 15       9.841898174621   -2.318726285225   -3.014813383139
 16      -9.619083858539    2.449716638604   -3.592925362325
 17       9.821325586662    2.565901813920   -2.901600474051
 18     -11.072637532168    0.008132260253   -4.107585417129
 19      -7.859974123486    2.507816097890   -4.670377661308
 20     -10.768343347799    4.069824410052   -4.169538529080
 21     -11.682075612034    0.036620577356   -6.098907032334
 22     -12.790033433363   -0.018513576591   -2.952563522255
 23     -10.726056568600   -4.045804097787   -4.303297008708
 24      -7.833090848027   -2.438023564089   -4.744560249816
 25      11.324428154746    0.138567125288   -3.332865861704
 26      10.996737998355    4.197510385725   -3.385839766842
 27       8.139906334333    2.623168253547   -4.096868650666
 28      12.958777088864    0.115793216970   -2.062815059778
 29      12.068938448585    0.187018594729   -5.277220358596
 30       8.159199074833   -2.332460985834   -4.209559517466
 31      11.029510583304   -3.916174204184   -3.576826611120


------------------
SYMMETRY REDUCTION
------------------
ORCA supports only abelian point groups.
It is now checked, if the determined point group is supported:
Point Group ( C1    ) is          ... supported

The point group is C1 - hence turning off symmetry
If this is a round-off problem, please increase the symmetry
        detection tolerance (%method SymThresh)

Storing the symmetry object:
Symmetry file                     ... input.sym.tmp
Writing symmetry information      ... done

                       ****************************
                       * Single Point Calculation *
                       ****************************

---------------------------------
CARTESIAN COORDINATES (ANGSTROEM)
---------------------------------
  V     -0.037385   -0.021585    1.117832
  S      1.647382    1.632585    0.461871
  S     -1.687682    1.611218    0.338401
  S      1.662261   -1.626723    0.387617
  S     -1.675851   -1.648779    0.296423
  O     -0.085540   -0.049108    2.713522
  C     -3.158621    0.658166    0.104903
  C     -3.153211   -0.700798    0.086020
  C      3.138036    0.691866    0.327324
  C      3.144563   -0.666994    0.296430
  S     -4.659195    1.630167   -0.136856
  S     -4.645718   -1.676603   -0.188791
  S      4.659926   -1.630383    0.121078
  S      4.644773    1.676379    0.197078
  C     -5.077433   -1.288079   -1.942089
  C      5.208108   -1.227017   -1.595371
  C     -5.090200    1.296334   -1.901294
  C      5.197222    1.357817   -1.535461
  C     -5.859387    0.004303   -2.173641
  H     -4.159319    1.327079   -2.471457
  H     -5.698362    2.153658   -2.206425
  H     -6.181888    0.019379   -3.227403
  H     -6.768194   -0.009797   -1.562429
  H     -5.675985   -2.140947   -2.277207
  H     -4.145093   -1.290147   -2.510713
  C      5.992629    0.073327   -1.763677
  H      5.819223    2.221227   -1.791709
  H      4.307453    1.388121   -2.167970
  H      6.857489    0.061275   -1.091595
  H      6.386607    0.098966   -2.792585
  H      4.317662   -1.234285   -2.227603
  H      5.836566   -2.072350   -1.892775

----------------------------
CARTESIAN COORDINATES (A.U.)
----------------------------
  NO LB      ZA    FRAG     MASS         X           Y           Z
   0 V    23.0000    0    50.940   -0.070648   -0.040790    2.112397
   1 S    16.0000    0    32.060    3.113101    3.085139    0.872809
   2 S    16.0000    0    32.060   -3.189257    3.044761    0.639485
   3 S    16.0000    0    32.060    3.141219   -3.074061    0.732491
   4 S    16.0000    0    32.060   -3.166900   -3.115741    0.560158
   5 O     8.0000    0    15.999   -0.161647   -0.092801    5.127813
   6 C     6.0000    0    12.011   -5.968929    1.243754    0.198237
   7 C     6.0000    0    12.011   -5.958706   -1.324317    0.162554
   8 C     6.0000    0    12.011    5.930029    1.307437    0.618554
   9 C     6.0000    0    12.011    5.942363   -1.260437    0.560172
  10 S    16.0000    0    32.060   -8.804602    3.080568   -0.258619
  11 S    16.0000    0    32.060   -8.779135   -3.168321   -0.356762
  12 S    16.0000    0    32.060    8.805983   -3.080977    0.228805
  13 S    16.0000    0    32.060    8.777349    3.167896    0.372424
  14 C     6.0000    0    12.011   -9.594959   -2.434116   -3.670016
  15 C     6.0000    0    12.011    9.841898   -2.318726   -3.014813
  16 C     6.0000    0    12.011   -9.619084    2.449717   -3.592925
  17 C     6.0000    0    12.011    9.821326    2.565902   -2.901600
  18 C     6.0000    0    12.011  -11.072638    0.008132   -4.107585
  19 H     1.0000    0     1.008   -7.859974    2.507816   -4.670378
  20 H     1.0000    0     1.008  -10.768343    4.069824   -4.169539
  21 H     1.0000    0     1.008  -11.682076    0.036621   -6.098907
  22 H     1.0000    0     1.008  -12.790033   -0.018514   -2.952564
  23 H     1.0000    0     1.008  -10.726057   -4.045804   -4.303297
  24 H     1.0000    0     1.008   -7.833091   -2.438024   -4.744560
  25 C     6.0000    0    12.011   11.324428    0.138567   -3.332866
  26 H     1.0000    0     1.008   10.996738    4.197510   -3.385840
  27 H     1.0000    0     1.008    8.139906    2.623168   -4.096869
  28 H     1.0000    0     1.008   12.958777    0.115793   -2.062815
  29 H     1.0000    0     1.008   12.068938    0.187019   -5.277220
  30 H     1.0000    0     1.008    8.159199   -2.332461   -4.209560
  31 H     1.0000    0     1.008   11.029511   -3.916174   -3.576827

--------------------------------
INTERNAL COORDINATES (ANGSTROEM)
--------------------------------
 V      0   0   0     0.000000000000     0.00000000     0.00000000
 S      1   0   0     2.450511618552     0.00000000     0.00000000
 S      1   2   0     2.448885593287    85.87330445     0.00000000
 S      1   2   3     2.449179350375    83.42396524   145.64346265
 S      1   2   3     2.450927140395   144.89087083    72.40759783
 O      1   2   3     1.596653108734   107.45118575   252.40183650
 C      3   1   2     1.768188339306   104.07899645   161.59043645
 C      7   3   1     1.359106317327   122.51131814   346.60063527
 C      2   1   3     1.767797287374   103.93927297   198.84085951
 C      9   2   1     1.359226970180   122.53246242    13.69077997
 S      7   3   1     1.804148970749   114.78519761   167.69821681
 S      8   7   3     1.804243085085   122.65682062   181.40867775
 S     10   9   2     1.804214697476   122.68795301   178.55481434
 S      9   2   1     1.804573260033   114.78605364   192.38187303
 C     12   8   7     1.846993102546   102.95422401    67.11764380
 C     13  10   9     1.846457463450   102.88841061   292.67714469
 C     11   7   3     1.846741293739   102.98845474   111.45175118
 C     14   9   2     1.846178093689   102.91147852   248.66885967
 C     17  11   7     1.528124837569   116.14190242    82.64324545
 H     17  11   7     1.092048692980   107.14577090   317.83136692
 H     17  11   7     1.094518253110   104.74054862   203.47953452
 H     19  17  11     1.102110872610   107.82620081   171.16261185
 H     19  17  11     1.095311722563   109.21274508    55.33370203
 H     15  12   8     1.094510362820   104.74746681   156.36400958
 H     15  12   8     1.092060610761   107.11699222    42.02484785
 C     18  14   9     1.527962957574   116.16749666   277.33848280
 H     18  14   9     1.094543741890   104.69297500   156.56444739
 H     18  14   9     1.092096143067   107.15339736    42.26667613
 H     26  18  14     1.095364115090   109.18551790   304.70026801
 H     26  18  14     1.102056166950   107.81757951   188.89670990
 H     16  13  10     1.092091920780   107.13577930   317.85834959
 H     16  13  10     1.094530104698   104.73414894   203.53521346

---------------------------
INTERNAL COORDINATES (A.U.)
---------------------------
 V      0   0   0     0.000000000000     0.00000000     0.00000000
 S      1   0   0     4.630795847056     0.00000000     0.00000000
 S      1   2   0     4.627723104617    85.87330445     0.00000000
 S      1   2   3     4.628278225063    83.42396524   145.64346265
 S      1   2   3     4.631581069541   144.89087083    72.40759783
 O      1   2   3     3.017237106380   107.45118575   252.40183650
 C      3   1   2     3.341391714482   104.07899645   161.59043645
 C      7   3   1     2.568338726631   122.51131814   346.60063527
 C      2   1   3     3.340652733425   103.93927297   198.84085951
 C      9   2   1     2.568566727480   122.53246242    13.69077997
 S      7   3   1     3.409347459511   114.78519761   167.69821681
 S      8   7   3     3.409525309831   122.65682062   181.40867775
 S     10   9   2     3.409471665025   122.68795301   178.55481434
 S      9   2   1     3.410149250060   114.78605364   192.38187303
 C     12   8   7     3.490311135054   102.95422401    67.11764380
 C     13  10   9     3.489298923856   102.88841061   292.67714469
 C     11   7   3     3.489835285371   102.98845474   111.45175118
 C     14   9   2     3.488770991517   102.91147852   248.66885967
 C     17  11   7     2.887737441448   116.14190242    82.64324545
 H     17  11   7     2.063672954640   107.14577090   317.83136692
 H     17  11   7     2.068339746955   104.74054862   203.47953452
 H     19  17  11     2.082687718450   107.82620081   171.16261185
 H     19  17  11     2.069839186918   109.21274508    55.33370203
 H     15  12   8     2.068324836468   104.74746681   156.36400958
 H     15  12   8     2.063695475981   107.11699222    42.02484785
 C     18  14   9     2.887431532592   116.16749666   277.33848280
 H     18  14   9     2.068387913770   104.69297500   156.56444739
 H     18  14   9     2.063762622308   107.15339736    42.26667613
 H     26  18  14     2.069938194445   109.18551790   304.70026801
 H     26  18  14     2.082584339735   107.81757951   188.89670990
 H     16  13  10     2.063754643343   107.13577930   317.85834959
 H     16  13  10     2.068362143211   104.73414894   203.53521346

---------------------
BASIS SET INFORMATION
---------------------
There are 5 groups of distinct atoms

 Group   1 Type V   : 17s11p5d1f contracted to 17s7p3d1f pattern {11111111111111111/3311111/311/1}
 Group   2 Type S   : 14s9p1d contracted to 5s4p1d pattern {73211/6111/1}
 Group   3 Type O   : 11s6p1d contracted to 5s3p1d pattern {62111/411/1}
 Group   4 Type C   : 11s6p1d contracted to 5s3p1d pattern {62111/411/1}
 Group   5 Type H   : 5s1p contracted to 3s1p pattern {311/1}

Atom   0V    basis set group =>   1
Atom   1S    basis set group =>   2
Atom   2S    basis set group =>   2
Atom   3S    basis set group =>   2
Atom   4S    basis set group =>   2
Atom   5O    basis set group =>   3
Atom   6C    basis set group =>   4
Atom   7C    basis set group =>   4
Atom   8C    basis set group =>   4
Atom   9C    basis set group =>   4
Atom  10S    basis set group =>   2
Atom  11S    basis set group =>   2
Atom  12S    basis set group =>   2
Atom  13S    basis set group =>   2
Atom  14C    basis set group =>   4
Atom  15C    basis set group =>   4
Atom  16C    basis set group =>   4
Atom  17C    basis set group =>   4
Atom  18C    basis set group =>   4
Atom  19H    basis set group =>   5
Atom  20H    basis set group =>   5
Atom  21H    basis set group =>   5
Atom  22H    basis set group =>   5
Atom  23H    basis set group =>   5
Atom  24H    basis set group =>   5
Atom  25C    basis set group =>   4
Atom  26H    basis set group =>   5
Atom  27H    basis set group =>   5
Atom  28H    basis set group =>   5
Atom  29H    basis set group =>   5
Atom  30H    basis set group =>   5
Atom  31H    basis set group =>   5

-------------------------
BASIS SET IN INPUT FORMAT
-------------------------

 # Basis set for element : H 
 NewGTO H 
 S 3 
   1      34.0613410000      0.0254393168
   2       5.1235746000      0.1900859340
   3       1.1646626000      0.8524411390
 S 1 
   1       0.3272304100      1.0000000000
 S 1 
   1       0.1030724100      1.0000000000
 P 1 
   1       0.8000000000      1.0000000000
  end;

 # Basis set for element : C 
 NewGTO C 
 S 6 
   1   13575.3496820000      0.0006064601
   2    2035.2333680000      0.0046978985
   3     463.2256235900      0.0243324735
   4     131.2001959800      0.0973999560
   5      42.8530158900      0.3019558443
   6      15.5841857700      0.6623361013
 S 2 
   1       6.2067138500      0.6559530795
   2       2.5764896500      0.3758563390
 S 1 
   1       0.5769633900      1.0000000000
 S 1 
   1       0.2297283100      1.0000000000
 S 1 
   1       0.0951644400      1.0000000000
 P 4 
   1      34.6972322400      0.0113272290
   2       7.9582622800      0.0761696612
   3       2.3780826900      0.3019225154
   4       0.8143320800      0.7278502776
 P 1 
   1       0.2888754700      1.0000000000
 P 1 
   1       0.1005682400      1.0000000000
 D 1 
   1       0.8000000000      1.0000000000
  end;

 # Basis set for element : O 
 NewGTO O 
 S 6 
   1   27032.3826310000      0.0005722654
   2    4052.3871392000      0.0044353333
   3     922.3272271000      0.0230201034
   4     261.2407098900      0.0928224938
   5      85.3546413500      0.2937849971
   6      31.0350352400      0.6740160462
 S 2 
   1      12.2608607300      0.6383993750
   2       4.9987076000      0.3953458663
 S 1 
   1       1.1703108200      1.0000000000
 S 1 
   1       0.4647474100      1.0000000000
 S 1 
   1       0.1850453600      1.0000000000
 P 4 
   1      63.2749548000      0.0120183316
   2      14.6270493800      0.0830054304
   3       4.4501223500      0.3199174388
   4       1.5275799600      0.7071554258
 P 1 
   1       0.5293511800      1.0000000000
 P 1 
   1       0.1747842100      1.0000000000
 D 1 
   1       1.2000000000      1.0000000000
  end;

 # Basis set for element : S 
 NewGTO S 
 S 7 
   1   60700.9281040000      0.0005238013
   2    9102.6106854000      0.0040506304
   3    2071.4166009000      0.0208270003
   4     586.0247682100      0.0814968475
   5     190.5539502100      0.2374911358
   6      67.6303842600      0.4472617145
   7      25.1273069100      0.3489191913
 S 3 
   1     112.5746301000      0.1004556993
   2      34.7955542200      0.4339117282
   3       6.5115556200     -1.2084330582
 S 2 
   1       3.2399032300      0.6749812922
   2       1.5477160900      0.3470879597
 S 1 
   1       0.4054103000      1.0000000000
 S 1 
   1       0.1455065100      1.0000000000
 P 6 
   1     564.3671602700      0.0025564845
   2     133.4262437900      0.0202874255
   3      42.4682711900      0.0927670112
   4      15.6165275800      0.2650208365
   5       6.1093988500      0.4486298663
   6       2.4404160200      0.3596369916
 P 1 
   1       0.8388220100      1.0000000000
 P 1 
   1       0.3128874700      1.0000000000
 P 1 
   1       0.1077010900      1.0000000000
 D 1 
   1       0.5500000000      1.0000000000
  end;

 # Basis set for element : V 
 NewGTO V 
 S 1 
   1  4239814.9912500000      1.0000000000
 S 1 
   1  1695925.9965000001      1.0000000000
 S 1 
   1  678370.3986000001      1.0000000000
 S 1 
   1  271348.1594400000      1.0000000000
 S 1 
   1   40672.0050780000      1.0000000000
 S 1 
   1    9257.0761385000      1.0000000000
 S 1 
   1    2622.7328773000      1.0000000000
 S 1 
   1     858.5948018500      1.0000000000
 S 1 
   1     314.1941865000      1.0000000000
 S 1 
   1     124.4786212700      1.0000000000
 S 1 
   1      50.4693993090      1.0000000000
 S 1 
   1      12.5138469110      1.0000000000
 S 1 
   1       5.3447758082      1.0000000000
 S 1 
   1       1.5755631295      1.0000000000
 S 1 
   1       0.6306903307      1.0000000000
 S 1 
   1       0.0879544416      1.0000000000
 S 1 
   1       0.0342969197      1.0000000000
 P 3 
   1    1450.0319327000     -0.0222847647
   2     343.7504988400     -0.1817959329
   3     110.8252170800     -0.8607412073
 P 3 
   1      41.8224645460     -0.2522537814
   2      17.0880737100     -0.4620379520
   3       7.2613218939     -0.3990010670
 P 1 
   1       2.9458145262      1.0000000000
 P 1 
   1       1.1650209680      1.0000000000
 P 1 
   1       0.4339937839      1.0000000000
 D 3 
   1      27.3603358640      0.0575501019
   2       7.4542765527      0.3023798347
   3       2.4632270217      0.7724212088
 D 1 
   1       0.8249954244      1.0000000000
 D 1 
   1       0.2526297057      1.0000000000
 P 1 
   1       0.1112480000      1.0000000000
 P 1 
   1       0.0363780000      1.0000000000
 F 1 
   1       1.8000000000      1.0000000000
  end;

---------------------------------
AUXILIARY/J BASIS SET INFORMATION
---------------------------------
There are 5 groups of distinct atoms

 Group   1 Type V   : 19s5p5d3f3g contracted to 8s5p5d2f3g pattern {121111111/11111/11111/21/111}
 Group   2 Type S   : 14s5p5d2f1g contracted to 8s4p3d1f1g pattern {71111111/2111/311/2/1}
 Group   3 Type O   : 12s5p4d2f1g contracted to 6s4p3d1f1g pattern {711111/2111/211/2/1}
 Group   4 Type C   : 12s5p4d2f1g contracted to 6s4p3d1f1g pattern {711111/2111/211/2/1}
 Group   5 Type H   : 5s2p1d contracted to 3s1p1d pattern {311/2/1}

Atom   0V    basis set group =>   1
Atom   1S    basis set group =>   2
Atom   2S    basis set group =>   2
Atom   3S    basis set group =>   2
Atom   4S    basis set group =>   2
Atom   5O    basis set group =>   3
Atom   6C    basis set group =>   4
Atom   7C    basis set group =>   4
Atom   8C    basis set group =>   4
Atom   9C    basis set group =>   4
Atom  10S    basis set group =>   2
Atom  11S    basis set group =>   2
Atom  12S    basis set group =>   2
Atom  13S    basis set group =>   2
Atom  14C    basis set group =>   4
Atom  15C    basis set group =>   4
Atom  16C    basis set group =>   4
Atom  17C    basis set group =>   4
Atom  18C    basis set group =>   4
Atom  19H    basis set group =>   5
Atom  20H    basis set group =>   5
Atom  21H    basis set group =>   5
Atom  22H    basis set group =>   5
Atom  23H    basis set group =>   5
Atom  24H    basis set group =>   5
Atom  25C    basis set group =>   4
Atom  26H    basis set group =>   5
Atom  27H    basis set group =>   5
Atom  28H    basis set group =>   5
Atom  29H    basis set group =>   5
Atom  30H    basis set group =>   5
Atom  31H    basis set group =>   5

-------------------------------------
AUXILIARY/J BASIS SET IN INPUT FORMAT
-------------------------------------

 # Auxiliary/J basis set for element : H 
 NewAuxJGTO H 
 S 3 
   1      15.6752927000      0.1007184237
   2       3.6063578000      0.3404257499
   3       1.2080016000      0.6491996172
 S 1 
   1       0.4726794000      1.0000000000
 S 1 
   1       0.2018100000      1.0000000000
 P 2 
   1       2.0281365000      0.5596620919
   2       0.5358730000      0.5596620919
 D 1 
   1       2.2165124000      1.0000000000
  end;

 # Auxiliary/J basis set for element : C 
 NewAuxJGTO C 
 S 7 
   1    1861.0916331000      0.0134602335
   2     642.9939764000      0.0299160374
   3     235.1105725000      0.1008649584
   4      90.7028894000      0.2370970548
   5      36.7794552000      0.3924037254
   6      15.6046273000      0.3195862154
   7       6.8907294000      0.0530104441
 S 1 
   1       3.1478850000     -1.0000000000
 S 1 
   1       1.4777287000      1.0000000000
 S 1 
   1       0.7076466000      1.0000000000
 S 1 
   1       0.3430122000      1.0000000000
 S 1 
   1       0.1669453000      1.0000000000
 P 2 
   1      13.5472892000     -0.6769313712
   2       5.4669419000     -0.3779500978
 P 1 
   1       2.1751721000      1.0000000000
 P 1 
   1       0.8582194000      1.0000000000
 P 1 
   1       0.3376720000      1.0000000000
 D 2 
   1       5.9287253000     -0.3533329857
   2       1.9809209000     -0.7456525731
 D 1 
   1       0.8055417000     -1.0000000000
 D 1 
   1       0.3531244000     -1.0000000000
 F 2 
   1       1.6755626000      0.6311076882
   2       0.5997536000      0.4968166032
 G 1 
   1       1.0024600000     -1.0000000000
  end;

 # Auxiliary/J basis set for element : O 
 NewAuxJGTO O 
 S 7 
   1    2876.8216605000      0.0168151159
   2    1004.7443032000      0.0340137548
   3     369.7579954000      0.1194951309
   4     142.9442404000      0.2664627624
   5      57.8366425000      0.4202764046
   6      24.3864983000      0.2765077335
   7      10.6622662000      0.0057008815
 S 1 
   1       4.8070437000     -1.0000000000
 S 1 
   1       2.2210770000      1.0000000000
 S 1 
   1       1.0447795000      1.0000000000
 S 1 
   1       0.4968425000      1.0000000000
 S 1 
   1       0.2371384000      1.0000000000
 P 2 
   1      64.2613382000     -0.2731534179
   2      16.3006076000     -0.8168011598
 P 1 
   1       4.3550542000      1.0000000000
 P 1 
   1       1.2019554000      1.0000000000
 P 1 
   1       0.3354196000      1.0000000000
 D 2 
   1       9.2146611000     -0.4661230638
   2       2.8435251000     -0.6600908911
 D 1 
   1       0.9955759000     -1.0000000000
 D 1 
   1       0.3649441000     -1.0000000000
 F 2 
   1       2.6420115000      0.5931563945
   2       0.7345613000      0.5931563945
 G 1 
   1       1.3931000000     -1.0000000000
  end;

 # Auxiliary/J basis set for element : S 
 NewAuxJGTO S 
 S 7 
   1    7399.0303145000      0.0295137551
   2    2710.1675859000      0.0559686311
   3    1034.3279062000      0.1764696370
   4     410.4645411000      0.3577969368
   5     168.9762502000      0.4299293578
   6      71.9687889000      0.1259148089
   7      31.6172683000     -0.0646025788
 S 1 
   1      14.2796836000      1.0000000000
 S 1 
   1       6.6060948000      1.0000000000
 S 1 
   1       3.1181477000      1.0000000000
 S 1 
   1       1.4954039000     -1.0000000000
 S 1 
   1       0.7254779000      1.0000000000
 S 1 
   1       0.3544216000      1.0000000000
 S 1 
   1       0.1735525000      1.0000000000
 P 2 
   1      12.6998799000      1.4059102813
   2       4.4295784000     -1.2124994202
 P 1 
   1       1.5232889000      1.0000000000
 P 1 
   1       0.5194667000     -1.0000000000
 P 1 
   1       0.1766547000     -1.0000000000
 D 3 
   1      16.8546461000      1.0295742104
   2       5.0810461000     -0.7461553923
   3       1.5102323000      0.8357028005
 D 1 
   1       0.4451331000      1.0000000000
 D 1 
   1       0.1308362000      1.0000000000
 F 2 
   1       1.0809860000      0.5572698934
   2       0.4161474000      0.5572698934
 G 1 
   1       0.6707100000     -1.0000000000
  end;

 # Auxiliary/J basis set for element : V 
 NewAuxJGTO V 
 S 12 
   1   11942.0842430000      0.0459866720
   2    2430.7110193000      0.1744615821
   3     841.0764301000      0.2900402792
   4     494.7508273000      0.1411212903
   5     291.0298903000      0.2660697186
   6     171.1940483000      0.0446365706
   7      59.2366916000     -0.0408204801
   8      34.8451117000      0.1394665381
   9      20.4971240000      0.2164746715
  10      12.0571314000      0.0864266611
  11       7.0924300000     -0.0568501658
  12       4.1720176000     -0.0126212852
 S 1 
   1       2.4541279000      1.0000000000
 S 1 
   1       1.4436046000      1.0000000000
 S 1 
   1       0.8491792000      1.0000000000
 S 1 
   1       0.2938336000      1.0000000000
 S 1 
   1       0.1728433000      1.0000000000
 S 1 
   1       0.1016725000      1.0000000000
 S 1 
   1       0.0598074000      1.0000000000
 P 1 
   1      16.7130979000     -1.0000000000
 P 1 
   1       4.7454037000     -1.0000000000
 P 1 
   1       1.3889998000      1.0000000000
 P 1 
   1       0.4142440000     -1.0000000000
 P 1 
   1       0.1243234000      1.0000000000
 D 1 
   1       7.7143225000      1.0000000000
 D 1 
   1       3.1170731000      1.0000000000
 D 1 
   1       1.2767950000     -1.0000000000
 D 1 
   1       0.5273386000      1.0000000000
 D 1 
   1       0.2184050000      1.0000000000
 F 2 
   1       3.1309344000     -1.0825667766
   2       1.0419780000      0.1809223232
 F 1 
   1       0.3559044000      1.0000000000
 G 1 
   1       8.7130110000      1.0000000000
 G 1 
   1       2.7493872000      1.0000000000
 G 1 
   1       0.8775089000      1.0000000000
  end;



           ************************************************************
           *        Program running with 16 parallel MPI-processes    *
           *              working on a common directory               *
           ************************************************************
------------------------------------------------------------------------------
                           ORCA GTO INTEGRAL CALCULATION
                           -- RI-GTO INTEGRALS CHOSEN --
------------------------------------------------------------------------------
------------------------------------------------------------------------------
                   ___                                                        
                  /   \      - P O W E R E D   B Y -                         
                 /     \                                                     
                 |  |  |   _    _      __       _____    __    __             
                 |  |  |  | |  | |    /  \     |  _  \  |  |  /  |          
                  \  \/   | |  | |   /    \    | | | |  |  | /  /          
                 / \  \   | |__| |  /  /\  \   | |_| |  |  |/  /          
                |  |  |   |  __  | /  /__\  \  |    /   |      \           
                |  |  |   | |  | | |   __   |  |    \   |  |\   \          
                \     /   | |  | | |  |  |  |  | |\  \  |  | \   \       
                 \___/    |_|  |_| |__|  |__|  |_| \__\ |__|  \__/        
                                                                              
                      - O R C A' S   B I G   F R I E N D -                    
                                      &                                       
                       - I N T E G R A L  F E E D E R -                       
                                                                              
 v1 FN, 2020, v2 2021                                                         
------------------------------------------------------------------------------


Reading SHARK input file input.SHARKINP.tmp ... ok
----------------------
SHARK INTEGRAL PACKAGE
----------------------

Number of atoms                             ...     32
Number of basis functions                   ...    517
Number of shells                            ...    255
Maximum angular momentum                    ...      3
Integral batch strategy                     ... SHARK/LIBINT Hybrid
RI-J (if used) integral strategy            ... SPLIT-RIJ (Revised 2003 algorithm where possible)
Printlevel                                  ...      1
Contraction scheme used                     ... SEGMENTED contraction
Coulomb Range Separation                    ... NOT USED
Exchange Range Separation                   ... NOT USED
Finite Nucleus Model                        ... NOT USED
Auxiliary Coulomb fitting basis             ... AVAILABLE
   # of basis functions in Aux-J            ...   1168
   # of shells in Aux-J                     ...    384
   Maximum angular momentum in Aux-J        ...      4
Auxiliary J/K fitting basis                 ... NOT available
Auxiliary Correlation fitting basis         ... NOT available
Auxiliary 'external' fitting basis          ... NOT available
Integral threshold                          ...     1.000000e-10
Primitive cut-off                           ...     1.000000e-11
Primitive pair pre-selection threshold      ...     1.000000e-11

Calculating pre-screening integrals         ... done (  0.1 sec) Dimension = 255
Organizing shell pair data                  ... done (  0.2 sec)
Shell pair information
Total number of shell pairs                 ...     32640
Shell pairs after pre-screening             ...     17847
Total number of primitive shell pairs       ...    123863
Primitive shell pairs kept                  ...     41739
          la=0 lb=0:   5389 shell pairs
          la=1 lb=0:   7068 shell pairs
          la=1 lb=1:   2302 shell pairs
          la=2 lb=0:   1676 shell pairs
          la=2 lb=1:   1120 shell pairs
          la=2 lb=2:    154 shell pairs
          la=3 lb=0:     73 shell pairs
          la=3 lb=1:     52 shell pairs
          la=3 lb=2:     12 shell pairs
          la=3 lb=3:      1 shell pairs

Calculating one electron integrals          ... done (  0.0 sec)
Calculating RI/J V-Matrix + Cholesky decomp.... done (  0.1 sec)
Calculating Nuclear repulsion               ... done (  0.0 sec) ENN=   3212.435516945020 Eh

SHARK setup successfully completed in   0.7 seconds

Maximum memory used throughout the entire GTOINT-calculation: 31.6 MB


           ************************************************************
           *        Program running with 16 parallel MPI-processes    *
           *              working on a common directory               *
           ************************************************************
-------------------------------------------------------------------------------
                                 ORCA SCF
-------------------------------------------------------------------------------

------------
SCF SETTINGS
------------
Hamiltonian:
 Density Functional     Method          .... DFT(GTOs)
 Exchange Functional    Exchange        .... B88
   X-Alpha parameter    XAlpha          ....  0.666667
   Becke's b parameter  XBeta           ....  0.004200
 Correlation Functional Correlation     .... LYP
 LDA part of GGA corr.  LDAOpt          .... VWN-5
 Gradients option       PostSCFGGA      .... off
 Hybrid DFT is turned on
   Fraction HF Exchange ScalHFX         ....  0.200000
   Scaling of DF-GGA-X  ScalDFX         ....  0.720000
   Scaling of DF-GGA-C  ScalDFC         ....  0.810000
   Scaling of DF-LDA-C  ScalLDAC        ....  1.000000
   Perturbative correction              ....  0.000000
   Density functional embedding theory  .... OFF
   NL short-range parameter             ....  4.800000
 RI-approximation to the Coulomb term is turned on
   Number of AuxJ basis functions       .... 1168
   RIJ-COSX (HFX calculated with COS-X)).... on


General Settings:
 Integral files         IntName         .... input
 Hartree-Fock type      HFTyp           .... UHF
 Total Charge           Charge          ....   -2
 Multiplicity           Mult            ....    2
 Number of Electrons    NEL             ....  233
 Basis Dimension        Dim             ....  517
 Nuclear Repulsion      ENuc            ....   3212.4355169450 Eh

Convergence Acceleration:
 DIIS                   CNVDIIS         .... on
   Start iteration      DIISMaxIt       ....    12
   Startup error        DIISStart       ....  0.200000
   # of expansion vecs  DIISMaxEq       ....     5
   Bias factor          DIISBfac        ....   1.050
   Max. coefficient     DIISMaxC        ....  10.000
 Trust-Rad. Augm. Hess. CNVTRAH         .... auto
   Auto Start mean grad. ratio tolernc. ....  1.125000
   Auto Start start iteration           ....     1
   Auto Start num. interpolation iter.  ....    10
   Max. Number of Micro iterations      ....    16
   Max. Number of Macro iterations      .... Maxiter - #DIIS iter
   Number of Davidson start vectors     ....     2
   Converg. threshold I  (grad. norm)   ....   5.000e-05
   Converg. threshold II (energy diff.) ....   1.000e-06
   Grad. Scal. Fac. for Micro threshold ....   0.100
   Minimum threshold for Micro iter.    ....   0.010
   NR start threshold (gradient norm)   ....   0.001
   Initial trust radius                 ....   0.400
   Minimum AH scaling param. (alpha)    ....   1.000
   Maximum AH scaling param. (alpha)    .... 1000.000
   Orbital update algorithm             .... Taylor
   White noise on init. David. guess    .... on
   Maximum white noise                  ....   0.010
   Quad. conv. algorithm                .... NR
 SOSCF                  CNVSOSCF        .... off
 Level Shifting         CNVShift        .... on
   Level shift para.    LevelShift      ....    0.2500
   Turn off err/grad.   ShiftErr        ....    0.0010
 Zerner damping         CNVZerner       .... off
 Static damping         CNVDamp         .... on
   Fraction old density DampFac         ....    0.7000
   Max. Damping (<1)    DampMax         ....    0.9800
   Min. Damping (>=0)   DampMin         ....    0.0000
   Turn off err/grad.   DampErr         ....    0.1000
 Fernandez-Rico         CNVRico         .... off

SCF Procedure:
 Maximum # iterations   MaxIter         ....   125
 SCF integral mode      SCFMode         .... Direct
   Integral package                     .... SHARK and LIBINT hybrid scheme
 Reset frequency        DirectResetFreq ....    20
 Integral Threshold     Thresh          ....  1.000e-10 Eh
 Primitive CutOff       TCut            ....  1.000e-11 Eh

Convergence Tolerance:
 Convergence Check Mode ConvCheckMode   .... Total+1el-Energy
 Convergence forced     ConvForced      .... 0
 Energy Change          TolE            ....  1.000e-06 Eh
 1-El. energy change                    ....  1.000e-03 Eh
 DIIS Error             TolErr          ....  1.000e-06


Diagonalization of the overlap matrix:
Smallest eigenvalue                        ... 1.813e-04
Time for diagonalization                   ...    0.177 sec
Threshold for overlap eigenvalues          ... 1.000e-08
Number of eigenvalues below threshold      ... 0
Time for construction of square roots      ...    0.147 sec
Total time needed                          ...    0.327 sec

---------------------
INITIAL GUESS: MOREAD
---------------------
Guess MOs are being read from file: start.gbw
Input geometry compatible with but different from current geometry
Input basis set matches current basis set (good)
MOs were renormalized
MOs were reorthogonalized (Cholesky)
                      ------------------
                      INITIAL GUESS DONE (   0.5 sec)
                      ------------------
-------------------
DFT GRID GENERATION
-------------------

General Integration Accuracy     IntAcc      ... 4.388
Radial Grid Type                 RadialGrid  ... OptM3 with GC (2021)
Angular Grid (max. ang.)         AngularGrid ... 4 (Lebedev-302)
Angular grid pruning method      GridPruning ... 4 (adaptive)
Weight generation scheme         WeightScheme... Becke
Basis function cutoff            BFCut       ... 1.0000e-10
Integration weight cutoff        WCut        ... 1.0000e-14
Angular grids for H and He will be reduced by one unit
Partially contracted basis set               ... off
Rotationally invariant grid construction     ... off

Total number of grid points                  ...   183972
Total number of batches                      ...     2890
Average number of points per batch           ...       63
Average number of grid points per atom       ...     5749
Time for grid setup =    1.679 sec

--------------------
COSX GRID GENERATION
--------------------

GRIDX 1
-------
General Integration Accuracy     IntAcc      ... 3.816
Radial Grid Type                 RadialGrid  ... OptM3 with GC (2021)
Angular Grid (max. ang.)         AngularGrid ... 1 (Lebedev-50)
Angular grid pruning method      GridPruning ... 4 (adaptive)
Weight generation scheme         WeightScheme... Becke
Basis function cutoff            BFCut       ... 1.0000e-10
Integration weight cutoff        WCut        ... 1.0000e-14
Angular grids for H and He will be reduced by one unit
Partially contracted basis set               ... on
Rotationally invariant grid construction     ... off

Total number of grid points                  ...    22757
Total number of batches                      ...      373
Average number of points per batch           ...       61
Average number of grid points per atom       ...      711
UseSFitting                                  ... on

GRIDX 2
-------
General Integration Accuracy     IntAcc      ... 4.020
Radial Grid Type                 RadialGrid  ... OptM3 with GC (2021)
Angular Grid (max. ang.)         AngularGrid ... 2 (Lebedev-110)
Angular grid pruning method      GridPruning ... 4 (adaptive)
Weight generation scheme         WeightScheme... Becke
Basis function cutoff            BFCut       ... 1.0000e-10
Integration weight cutoff        WCut        ... 1.0000e-14
Angular grids for H and He will be reduced by one unit
Partially contracted basis set               ... on
Rotationally invariant grid construction     ... off

Total number of grid points                  ...    49122
Total number of batches                      ...      786
Average number of points per batch           ...       62
Average number of grid points per atom       ...     1535
UseSFitting                                  ... on

GRIDX 3
-------
General Integration Accuracy     IntAcc      ... 4.338
Radial Grid Type                 RadialGrid  ... OptM3 with GC (2021)
Angular Grid (max. ang.)         AngularGrid ... 3 (Lebedev-194)
Angular grid pruning method      GridPruning ... 4 (adaptive)
Weight generation scheme         WeightScheme... Becke
Basis function cutoff            BFCut       ... 1.0000e-10
Integration weight cutoff        WCut        ... 1.0000e-14
Angular grids for H and He will be reduced by one unit
Partially contracted basis set               ... on
Rotationally invariant grid construction     ... off

Total number of grid points                  ...   112093
Total number of batches                      ...     1768
Average number of points per batch           ...       63
Average number of grid points per atom       ...     3503
UseSFitting                                  ... on

Time for X-Grid setup             =    1.583 sec

--------------
SCF ITERATIONS
--------------
ITER       Energy         Delta-E        Max-DP      RMS-DP      [F,P]     Damp
               ***  Starting incremental Fock matrix formation  ***
  0  -4592.7243166210   0.000000000000 0.00004367  0.00000055  0.0000096 0.7000
                 **** Energy Check signals convergence ****

               *****************************************************
               *                     SUCCESS                       *
               *           SCF CONVERGED AFTER   1 CYCLES          *
               *****************************************************

Old exchange energy                            =    -61.766031851 Eh
New exchange energy                            =    -61.766081076 Eh
Exchange energy change after final integration =     -0.000049225 Eh
Total energy after final integration           =  -4592.724365797 Eh
Final COS-X integration done in                =    11.426 sec

----------------
TOTAL SCF ENERGY
----------------

Total Energy       :        -4592.72436580 Eh         -124974.38357 eV

Components:
Nuclear Repulsion  :         3212.43551695 Eh           87414.81450 eV
Electronic Energy  :        -7805.15988274 Eh         -212389.19807 eV
One Electron Energy:       -12788.64616993 Eh         -347996.75410 eV
Two Electron Energy:         4983.48628718 Eh          135607.55603 eV
Max COSX asymmetry :            0.00000147 Eh               0.00004 eV

Virial components:
Potential Energy   :        -9173.87173681 Eh         -249633.74109 eV
Kinetic Energy     :         4581.14737101 Eh          124659.35752 eV
Virial Ratio       :            2.00252710


DFT components:
N(Alpha)           :      117.000075869513 electrons
N(Beta)            :      116.000076111786 electrons
N(Total)           :      233.000151981300 electrons
E(X)               :     -245.500302479169 Eh       
E(C)               :      -10.625463149450 Eh       
E(XC)              :     -256.125765628618 Eh       
DFET-embed. en.    :        0.000000000000 Eh       

---------------
SCF CONVERGENCE
---------------

  Last Energy change         ...    4.8785e-08  Tolerance :   1.0000e-06
  Last MAX-Density change    ...    1.3401e-05  Tolerance :   1.0000e-05
  Last RMS-Density change    ...    1.6411e-07  Tolerance :   1.0000e-06
  Last DIIS Error            ...    6.7198e-06  Tolerance :   1.0000e-06

             **** THE GBW FILE WAS UPDATED (input.gbw) ****
             **** DENSITY input.scfp WAS UPDATED ****
             **** ENERGY FILE WAS UPDATED (input.en.tmp) ****
----------------------
UHF SPIN CONTAMINATION
----------------------

Warning: in a DFT calculation there is little theoretical justification to 
         calculate <S**2> as in Hartree-Fock theory. We will do it anyways
         but you should keep in mind that the values have only limited relevance

Expectation value of <S**2>     :     0.764870
Ideal value S*(S+1) for S=0.5   :     0.750000
Deviation                       :     0.014870

             **** THE GBW FILE WAS UPDATED (input.gbw) ****
             **** DENSITY input.scfp WAS UPDATED ****
----------------
ORBITAL ENERGIES
----------------
                 SPIN UP ORBITALS
  NO   OCC          E(Eh)            E(eV) 
   0   1.0000    -196.639845     -5350.8422 
   1   1.0000     -88.676401     -2413.0075 
   2   1.0000     -88.676344     -2413.0060 
   3   1.0000     -88.676306     -2413.0050 
   4   1.0000     -88.676296     -2413.0047 
   5   1.0000     -88.611782     -2411.2492 
   6   1.0000     -88.611770     -2411.2488 
   7   1.0000     -88.611767     -2411.2488 
   8   1.0000     -88.611659     -2411.2458 
   9   1.0000     -22.015669      -599.0768 
  10   1.0000     -18.856911      -513.1226 
  11   1.0000     -18.522498      -504.0228 
  12   1.0000     -18.516714      -503.8654 
  13   1.0000     -18.516679      -503.8644 
  14   1.0000     -10.015281      -272.5297 
  15   1.0000     -10.015257      -272.5290 
  16   1.0000     -10.015174      -272.5267 
  17   1.0000     -10.015153      -272.5262 
  18   1.0000     -10.004568      -272.2381 
  19   1.0000     -10.004476      -272.2356 
  20   1.0000      -9.991653      -271.8867 
  21   1.0000      -9.991624      -271.8859 
  22   1.0000      -9.990930      -271.8670 
  23   1.0000      -9.990909      -271.8664 
  24   1.0000      -7.730045      -210.3452 
  25   1.0000      -7.729988      -210.3437 
  26   1.0000      -7.729959      -210.3429 
  27   1.0000      -7.729947      -210.3425 
  28   1.0000      -7.666226      -208.6086 
  29   1.0000      -7.666214      -208.6083 
  30   1.0000      -7.666200      -208.6079 
  31   1.0000      -7.666129      -208.6060 
  32   1.0000      -5.695288      -154.9767 
  33   1.0000      -5.695233      -154.9752 
  34   1.0000      -5.695200      -154.9743 
  35   1.0000      -5.695194      -154.9741 
  36   1.0000      -5.691402      -154.8709 
  37   1.0000      -5.691346      -154.8694 
  38   1.0000      -5.691313      -154.8685 
  39   1.0000      -5.691304      -154.8682 
  40   1.0000      -5.684794      -154.6911 
  41   1.0000      -5.684737      -154.6896 
  42   1.0000      -5.684705      -154.6887 
  43   1.0000      -5.684698      -154.6885 
  44   1.0000      -5.631061      -153.2289 
  45   1.0000      -5.631049      -153.2286 
  46   1.0000      -5.631041      -153.2284 
  47   1.0000      -5.630961      -153.2262 
  48   1.0000      -5.624661      -153.0548 
  49   1.0000      -5.624644      -153.0543 
  50   1.0000      -5.624640      -153.0542 
  51   1.0000      -5.624551      -153.0518 
  52   1.0000      -5.624206      -153.0424 
  53   1.0000      -5.624197      -153.0422 
  54   1.0000      -5.624188      -153.0419 
  55   1.0000      -5.624112      -153.0399 
  56   1.0000      -2.409363       -65.5621 
  57   1.0000      -1.450732       -39.4764 
  58   1.0000      -1.439144       -39.1611 
  59   1.0000      -1.438060       -39.1316 
  60   1.0000      -0.643715       -17.5164 
  61   1.0000      -0.643650       -17.5146 
  62   1.0000      -0.617984       -16.8162 
  63   1.0000      -0.593720       -16.1559 
  64   1.0000      -0.593272       -16.1437 
  65   1.0000      -0.575749       -15.6669 
  66   1.0000      -0.575671       -15.6648 
  67   1.0000      -0.491407       -13.3719 
  68   1.0000      -0.489533       -13.3209 
  69   1.0000      -0.487434       -13.2637 
  70   1.0000      -0.486259       -13.2318 
  71   1.0000      -0.422930       -11.5085 
  72   1.0000      -0.420070       -11.4307 
  73   1.0000      -0.412506       -11.2249 
  74   1.0000      -0.407389       -11.0856 
  75   1.0000      -0.376276       -10.2390 
  76   1.0000      -0.373078       -10.1520 
  77   1.0000      -0.292812        -7.9678 
  78   1.0000      -0.292611        -7.9623 
  79   1.0000      -0.277681        -7.5561 
  80   1.0000      -0.277414        -7.5488 
  81   1.0000      -0.260540        -7.0896 
  82   1.0000      -0.255855        -6.9622 
  83   1.0000      -0.242140        -6.5890 
  84   1.0000      -0.239181        -6.5084 
  85   1.0000      -0.195305        -5.3145 
  86   1.0000      -0.192607        -5.2411 
  87   1.0000      -0.192079        -5.2267 
  88   1.0000      -0.191532        -5.2119 
  89   1.0000      -0.184615        -5.0236 
  90   1.0000      -0.184379        -5.0172 
  91   1.0000      -0.180848        -4.9211 
  92   1.0000      -0.150521        -4.0959 
  93   1.0000      -0.149843        -4.0774 
  94   1.0000      -0.143431        -3.9030 
  95   1.0000      -0.143369        -3.9013 
  96   1.0000      -0.141888        -3.8610 
  97   1.0000      -0.097170        -2.6441 
  98   1.0000      -0.096288        -2.6201 
  99   1.0000      -0.089322        -2.4306 
 100   1.0000      -0.083188        -2.2637 
 101   1.0000      -0.081367        -2.2141 
 102   1.0000      -0.079990        -2.1766 
 103   1.0000      -0.069545        -1.8924 
 104   1.0000      -0.049901        -1.3579 
 105   1.0000      -0.037937        -1.0323 
 106   1.0000      -0.037901        -1.0313 
 107   1.0000      -0.035572        -0.9680 
 108   1.0000      -0.031877        -0.8674 
 109   1.0000      -0.012918        -0.3515 
 110   1.0000      -0.004092        -0.1113 
 111   1.0000      -0.003115        -0.0848 
 112   1.0000       0.006436         0.1751 
 113   1.0000       0.010849         0.2952 
 114   1.0000       0.016503         0.4491 
 115   1.0000       0.033768         0.9189 
 116   1.0000       0.059976         1.6320 
 117   0.0000       0.188432         5.1275 
 118   0.0000       0.195918         5.3312 
 119   0.0000       0.196452         5.3457 
 120   0.0000       0.196748         5.3538 
 121   0.0000       0.211736         5.7616 
 122   0.0000       0.213316         5.8046 
 123   0.0000       0.218798         5.9538 
 124   0.0000       0.225088         6.1250 
 125   0.0000       0.227570         6.1925 
 126   0.0000       0.234825         6.3899 
 127   0.0000       0.241694         6.5768 
 128   0.0000       0.244068         6.6414 
 129   0.0000       0.244285         6.6473 
 130   0.0000       0.246959         6.7201 
 131   0.0000       0.248107         6.7513 
 132   0.0000       0.254043         6.9129 
 133   0.0000       0.254389         6.9223 
 134   0.0000       0.257742         7.0135 
 135   0.0000       0.261719         7.1217 
 136   0.0000       0.272087         7.4039 
 137   0.0000       0.276659         7.5283 
 138   0.0000       0.278264         7.5719 
 139   0.0000       0.283835         7.7235 
 140   0.0000       0.284229         7.7343 
 141   0.0000       0.284561         7.7433 
 142   0.0000       0.285781         7.7765 
 143   0.0000       0.293052         7.9744 
 144   0.0000       0.306764         8.3475 
 145   0.0000       0.309857         8.4316 
 146   0.0000       0.310264         8.4427 
 147   0.0000       0.319912         8.7053 
 148   0.0000       0.325891         8.8679 
 149   0.0000       0.329153         8.9567 
 150   0.0000       0.348042         9.4707 
 151   0.0000       0.360615         9.8128 
 152   0.0000       0.374820        10.1994 
 153   0.0000       0.375319        10.2130 
 154   0.0000       0.394373        10.7314 
 155   0.0000       0.395572        10.7641 
 156   0.0000       0.395797        10.7702 
 157   0.0000       0.397198        10.8083 
 158   0.0000       0.402490        10.9523 
 159   0.0000       0.412608        11.2276 
 160   0.0000       0.423981        11.5371 
 161   0.0000       0.424950        11.5635 
 162   0.0000       0.426993        11.6191 
 163   0.0000       0.429124        11.6771 
 164   0.0000       0.444392        12.0925 
 165   0.0000       0.453946        12.3525 
 166   0.0000       0.455503        12.3949 
 167   0.0000       0.457454        12.4480 
 168   0.0000       0.461157        12.5487 
 169   0.0000       0.462007        12.5719 
 170   0.0000       0.471777        12.8377 
 171   0.0000       0.477336        12.9890 
 172   0.0000       0.479521        13.0484 
 173   0.0000       0.483950        13.1690 
 174   0.0000       0.493317        13.4238 
 175   0.0000       0.495012        13.4700 
 176   0.0000       0.501421        13.6444 
 177   0.0000       0.502366        13.6701 
 178   0.0000       0.502796        13.6818 
 179   0.0000       0.510792        13.8994 
 180   0.0000       0.511579        13.9208 
 181   0.0000       0.516857        14.0644 
 182   0.0000       0.521132        14.1807 
 183   0.0000       0.523052        14.2330 
 184   0.0000       0.535809        14.5801 
 185   0.0000       0.547620        14.9015 
 186   0.0000       0.550898        14.9907 
 187   0.0000       0.551703        15.0126 
 188   0.0000       0.555532        15.1168 
 189   0.0000       0.556155        15.1337 
 190   0.0000       0.561683        15.2842 
 191   0.0000       0.571517        15.5518 
 192   0.0000       0.575745        15.6668 
 193   0.0000       0.575879        15.6705 
 194   0.0000       0.577240        15.7075 
 195   0.0000       0.580563        15.7979 
 196   0.0000       0.582898        15.8615 
 197   0.0000       0.585784        15.9400 
 198   0.0000       0.587498        15.9866 
 199   0.0000       0.590077        16.0568 
 200   0.0000       0.592244        16.1158 
 201   0.0000       0.595237        16.1972 
 202   0.0000       0.604542        16.4504 
 203   0.0000       0.606118        16.4933 
 204   0.0000       0.615669        16.7532 
 205   0.0000       0.617769        16.8103 
 206   0.0000       0.622914        16.9504 
 207   0.0000       0.626572        17.0499 
 208   0.0000       0.629369        17.1260 
 209   0.0000       0.634249        17.2588 
 210   0.0000       0.641518        17.4566 
 211   0.0000       0.643640        17.5143 
 212   0.0000       0.647682        17.6243 
 213   0.0000       0.650180        17.6923 
 214   0.0000       0.654303        17.8045 
 215   0.0000       0.658774        17.9261 
 216   0.0000       0.659554        17.9474 
 217   0.0000       0.662904        18.0385 
 218   0.0000       0.669252        18.2113 
 219   0.0000       0.676203        18.4004 
 220   0.0000       0.680275        18.5112 
 221   0.0000       0.686673        18.6853 
 222   0.0000       0.693697        18.8765 
 223   0.0000       0.704208        19.1625 
 224   0.0000       0.718494        19.5512 
 225   0.0000       0.723117        19.6770 
 226   0.0000       0.733139        19.9497 
 227   0.0000       0.742407        20.2019 
 228   0.0000       0.748593        20.3702 
 229   0.0000       0.755762        20.5653 
 230   0.0000       0.771552        20.9950 
 231   0.0000       0.775115        21.0919 
 232   0.0000       0.777667        21.1614 
 233   0.0000       0.798771        21.7357 
 234   0.0000       0.801942        21.8220 
 235   0.0000       0.838669        22.8213 
 236   0.0000       0.863891        23.5077 
 237   0.0000       0.870512        23.6878 
 238   0.0000       0.873463        23.7681 
 239   0.0000       0.885813        24.1042 
 240   0.0000       0.891554        24.2604 
 241   0.0000       0.904347        24.6085 
 242   0.0000       0.912658        24.8347 
 243   0.0000       0.914170        24.8758 
 244   0.0000       0.918719        24.9996 
 245   0.0000       0.922366        25.0989 
 246   0.0000       0.930976        25.3331 
 247   0.0000       0.950114        25.8539 
 248   0.0000       0.963171        26.2092 
 249   0.0000       0.975551        26.5461 
 250   0.0000       0.977119        26.5888 
 251   0.0000       0.981375        26.7046 
 252   0.0000       0.984082        26.7782 
 253   0.0000       0.988152        26.8890 
 254   0.0000       0.999508        27.1980 
 255   0.0000       1.002876        27.2896 
 256   0.0000       1.005808        27.3694 
 257   0.0000       1.020999        27.7828 
 258   0.0000       1.028983        28.0000 
 259   0.0000       1.032110        28.0852 
 260   0.0000       1.056798        28.7569 
 261   0.0000       1.057665        28.7805 
 262   0.0000       1.058488        28.8029 
 263   0.0000       1.059362        28.8267 
 264   0.0000       1.080590        29.4043 
 265   0.0000       1.090895        29.6848 
 266   0.0000       1.101179        29.9646 
 267   0.0000       1.123451        30.5706 
 268   0.0000       1.123638        30.5757 
 269   0.0000       1.124249        30.5924 
 270   0.0000       1.125505        30.6265 
 271   0.0000       1.132576        30.8190 
 272   0.0000       1.133745        30.8508 
 273   0.0000       1.136273        30.9196 
 274   0.0000       1.137110        30.9423 
 275   0.0000       1.151170        31.3249 
 276   0.0000       1.157170        31.4882 
 277   0.0000       1.160168        31.5698 
 278   0.0000       1.183342        32.2004 
 279   0.0000       1.194722        32.5100 
 280   0.0000       1.202940        32.7337 
 281   0.0000       1.237945        33.6862 
 282   0.0000       1.238683        33.7063 
 283   0.0000       1.272089        34.6153 
 284   0.0000       1.274647        34.6849 
 285   0.0000       1.289749        35.0958 
 286   0.0000       1.298387        35.3309 
 287   0.0000       1.303145        35.4604 
 288   0.0000       1.315909        35.8077 
 289   0.0000       1.350570        36.7509 
 290   0.0000       1.357088        36.9282 
 291   0.0000       1.357660        36.9438 
 292   0.0000       1.373018        37.3617 
 293   0.0000       1.407759        38.3071 
 294   0.0000       1.416847        38.5544 
 295   0.0000       1.427828        38.8532 
 296   0.0000       1.440800        39.2062 
 297   0.0000       1.441705        39.2308 
 298   0.0000       1.460891        39.7529 
 299   0.0000       1.469545        39.9884 
 300   0.0000       1.470077        40.0028 
 301   0.0000       1.484186        40.3868 
 302   0.0000       1.485249        40.4157 
 303   0.0000       1.487117        40.4665 
 304   0.0000       1.492344        40.6087 
 305   0.0000       1.518316        41.3155 
 306   0.0000       1.522576        41.4314 
 307   0.0000       1.527979        41.5784 
 308   0.0000       1.548936        42.1487 
 309   0.0000       1.551517        42.2189 
 310   0.0000       1.565566        42.6012 
 311   0.0000       1.566269        42.6203 
 312   0.0000       1.603795        43.6415 
 313   0.0000       1.605071        43.6762 
 314   0.0000       1.611758        43.8582 
 315   0.0000       1.616590        43.9896 
 316   0.0000       1.625080        44.2207 
 317   0.0000       1.640382        44.6371 
 318   0.0000       1.659770        45.1646 
 319   0.0000       1.668580        45.4044 
 320   0.0000       1.669280        45.4234 
 321   0.0000       1.673286        45.5324 
 322   0.0000       1.674337        45.5610 
 323   0.0000       1.695593        46.1394 
 324   0.0000       1.702963        46.3400 
 325   0.0000       1.710650        46.5491 
 326   0.0000       1.724176        46.9172 
 327   0.0000       1.738296        47.3014 
 328   0.0000       1.743635        47.4467 
 329   0.0000       1.752483        47.6875 
 330   0.0000       1.757373        47.8206 
 331   0.0000       1.769365        48.1469 
 332   0.0000       1.773701        48.2649 
 333   0.0000       1.795495        48.8579 
 334   0.0000       1.796038        48.8727 
 335   0.0000       1.800571        48.9960 
 336   0.0000       1.810276        49.2601 
 337   0.0000       1.828727        49.7622 
 338   0.0000       1.837613        50.0040 
 339   0.0000       1.842134        50.1270 
 340   0.0000       1.845494        50.2184 
 341   0.0000       1.846526        50.2465 
 342   0.0000       1.852802        50.4173 
 343   0.0000       1.853307        50.4310 
 344   0.0000       1.860414        50.6244 
 345   0.0000       1.870830        50.9079 
 346   0.0000       1.871382        50.9229 
 347   0.0000       1.920791        52.2674 
 348   0.0000       1.929831        52.5134 
 349   0.0000       1.933711        52.6189 
 350   0.0000       1.938827        52.7582 
 351   0.0000       1.953563        53.1591 
 352   0.0000       1.954683        53.1896 
 353   0.0000       1.961897        53.3859 
 354   0.0000       1.962619        53.4056 
 355   0.0000       1.969239        53.5857 
 356   0.0000       1.969658        53.5971 
 357   0.0000       2.012331        54.7583 
 358   0.0000       2.014205        54.8093 
 359   0.0000       2.042542        55.5804 
 360   0.0000       2.052665        55.8559 
 361   0.0000       2.069006        56.3005 
 362   0.0000       2.069792        56.3219 
 363   0.0000       2.073239        56.4157 
 364   0.0000       2.077686        56.5367 
 365   0.0000       2.110905        57.4406 
 366   0.0000       2.114949        57.5507 
 367   0.0000       2.125698        57.8432 
 368   0.0000       2.128346        57.9152 
 369   0.0000       2.156799        58.6895 
 370   0.0000       2.163206        58.8638 
 371   0.0000       2.163447        58.8704 
 372   0.0000       2.172327        59.1120 
 373   0.0000       2.190915        59.6178 
 374   0.0000       2.195374        59.7392 
 375   0.0000       2.196664        59.7743 
 376   0.0000       2.206738        60.0484 
 377   0.0000       2.209540        60.1246 
 378   0.0000       2.214306        60.2543 
 379   0.0000       2.227042        60.6009 
 380   0.0000       2.233488        60.7763 
 381   0.0000       2.238943        60.9247 
 382   0.0000       2.240366        60.9635 
 383   0.0000       2.265837        61.6566 
 384   0.0000       2.273977        61.8780 
 385   0.0000       2.286818        62.2275 
 386   0.0000       2.286935        62.2307 
 387   0.0000       2.292793        62.3901 
 388   0.0000       2.296673        62.4956 
 389   0.0000       2.316262        63.0287 
 390   0.0000       2.322117        63.1880 
 391   0.0000       2.354663        64.0736 
 392   0.0000       2.355795        64.1045 
 393   0.0000       2.358152        64.1686 
 394   0.0000       2.403971        65.4154 
 395   0.0000       2.404467        65.4289 
 396   0.0000       2.408881        65.5490 
 397   0.0000       2.408934        65.5504 
 398   0.0000       2.414663        65.7063 
 399   0.0000       2.445933        66.5572 
 400   0.0000       2.448126        66.6169 
 401   0.0000       2.471636        67.2566 
 402   0.0000       2.472032        67.2674 
 403   0.0000       2.512043        68.3562 
 404   0.0000       2.521271        68.6073 
 405   0.0000       2.530515        68.8588 
 406   0.0000       2.535410        68.9920 
 407   0.0000       2.549953        69.3878 
 408   0.0000       2.551752        69.4367 
 409   0.0000       2.554348        69.5073 
 410   0.0000       2.554497        69.5114 
 411   0.0000       2.599079        70.7245 
 412   0.0000       2.605770        70.9066 
 413   0.0000       2.617396        71.2230 
 414   0.0000       2.619219        71.2726 
 415   0.0000       2.619966        71.2929 
 416   0.0000       2.634515        71.6888 
 417   0.0000       2.637055        71.7579 
 418   0.0000       2.672431        72.7205 
 419   0.0000       2.673005        72.7362 
 420   0.0000       2.678538        72.8867 
 421   0.0000       2.682039        72.9820 
 422   0.0000       2.700954        73.4967 
 423   0.0000       2.701144        73.5019 
 424   0.0000       2.761279        75.1382 
 425   0.0000       2.765737        75.2595 
 426   0.0000       2.779347        75.6299 
 427   0.0000       2.781610        75.6914 
 428   0.0000       2.794128        76.0321 
 429   0.0000       2.805628        76.3450 
 430   0.0000       2.823385        76.8282 
 431   0.0000       2.823752        76.8382 
 432   0.0000       2.855976        77.7150 
 433   0.0000       2.858190        77.7753 
 434   0.0000       2.863820        77.9285 
 435   0.0000       2.864252        77.9403 
 436   0.0000       2.890979        78.6675 
 437   0.0000       2.910917        79.2101 
 438   0.0000       2.912192        79.2448 
 439   0.0000       2.917481        79.3887 
 440   0.0000       2.922561        79.5269 
 441   0.0000       2.925135        79.5970 
 442   0.0000       2.929077        79.7042 
 443   0.0000       2.950295        80.2816 
 444   0.0000       2.965924        80.7069 
 445   0.0000       3.012723        81.9804 
 446   0.0000       3.026186        82.3467 
 447   0.0000       3.053443        83.0884 
 448   0.0000       3.054195        83.1089 
 449   0.0000       3.054828        83.1261 
 450   0.0000       3.055768        83.1517 
 451   0.0000       3.188676        86.7683 
 452   0.0000       3.190239        86.8108 
 453   0.0000       3.333924        90.7207 
 454   0.0000       3.334535        90.7373 
 455   0.0000       3.399446        92.5036 
 456   0.0000       3.430294        93.3431 
 457   0.0000       3.445282        93.7509 
 458   0.0000       3.452298        93.9418 
 459   0.0000       3.481910        94.7476 
 460   0.0000       3.482246        94.7567 
 461   0.0000       3.524374        95.9031 
 462   0.0000       3.524889        95.9171 
 463   0.0000       3.540900        96.3528 
 464   0.0000       3.541146        96.3595 
 465   0.0000       3.576322        97.3167 
 466   0.0000       3.576392        97.3186 
 467   0.0000       3.586389        97.5906 
 468   0.0000       3.587337        97.6164 
 469   0.0000       3.802098       103.4603 
 470   0.0000       3.844832       104.6232 
 471   0.0000       3.861661       105.0811 
 472   0.0000       3.994870       108.7059 
 473   0.0000       4.216029       114.7240 
 474   0.0000       4.542805       123.6160 
 475   0.0000       4.559900       124.0812 
 476   0.0000       4.563281       124.1732 
 477   0.0000       4.591502       124.9411 
 478   0.0000       4.619512       125.7033 
 479   0.0000       4.619911       125.7142 
 480   0.0000       5.202620       141.5705 
 481   0.0000       7.008564       190.7127 
 482   0.0000       7.055618       191.9931 
 483   0.0000       7.059065       192.0869 
 484   0.0000      18.718038       509.3437 
 485   0.0000      18.761176       510.5176 
 486   0.0000      19.000185       517.0213 
 487   0.0000      19.015449       517.4367 
 488   0.0000      19.049899       518.3741 
 489   0.0000      19.055762       518.5336 
 490   0.0000      19.249853       523.8151 
 491   0.0000      19.331586       526.0392 
 492   0.0000      19.779058       538.2155 
 493   0.0000      21.668612       589.6329 
 494   0.0000      21.702061       590.5431 
 495   0.0000      22.118011       601.8617 
 496   0.0000      22.119178       601.8934 
 497   0.0000      22.192708       603.8943 
 498   0.0000      22.192973       603.9015 
 499   0.0000      22.253545       605.5497 
 500   0.0000      22.267548       605.9308 
 501   0.0000      22.287504       606.4738 
 502   0.0000      22.288174       606.4920 
 503   0.0000      43.648762      1187.7432 
 504   0.0000     128.718677      3502.6133 
 505   0.0000     158.393576      4310.1083 
 506   0.0000     158.432660      4311.1718 
 507   0.0000     158.437525      4311.3042 
 508   0.0000     555.876335     15126.1641 
 509   0.0000    1893.277830     51518.7089 
 510   0.0000    6235.787160    169684.3952 
 511   0.0000   22016.214197    599091.6455 
 512   0.0000   90690.763808   2467821.1448 
 513   0.0000   462517.503948   12585741.1291 
 514   0.0000   1711386.059599   46569182.2132 
 515   0.0000   5079093.264008   138209154.1313 
 516   0.0000   14523636.780171   395208248.7876 

                 SPIN DOWN ORBITALS
  NO   OCC          E(Eh)            E(eV) 
   0   1.0000    -196.639987     -5350.8461 
   1   1.0000     -88.676414     -2413.0079 
   2   1.0000     -88.676357     -2413.0064 
   3   1.0000     -88.676320     -2413.0053 
   4   1.0000     -88.676310     -2413.0051 
   5   1.0000     -88.611942     -2411.2535 
   6   1.0000     -88.611929     -2411.2532 
   7   1.0000     -88.611927     -2411.2531 
   8   1.0000     -88.611819     -2411.2502 
   9   1.0000     -22.000998      -598.6776 
  10   1.0000     -18.860501      -513.2203 
  11   1.0000     -18.517365      -503.8831 
  12   1.0000     -18.501223      -503.4439 
  13   1.0000     -18.500543      -503.4254 
  14   1.0000     -10.015277      -272.5296 
  15   1.0000     -10.015253      -272.5289 
  16   1.0000     -10.015170      -272.5266 
  17   1.0000     -10.015149      -272.5261 
  18   1.0000     -10.004568      -272.2381 
  19   1.0000     -10.004476      -272.2356 
  20   1.0000      -9.991398      -271.8798 
  21   1.0000      -9.991369      -271.8790 
  22   1.0000      -9.990677      -271.8601 
  23   1.0000      -9.990656      -271.8596 
  24   1.0000      -7.730059      -210.3456 
  25   1.0000      -7.730002      -210.3440 
  26   1.0000      -7.729973      -210.3432 
  27   1.0000      -7.729961      -210.3429 
  28   1.0000      -7.666374      -208.6127 
  29   1.0000      -7.666363      -208.6123 
  30   1.0000      -7.666348      -208.6119 
  31   1.0000      -7.666277      -208.6100 
  32   1.0000      -5.695305      -154.9771 
  33   1.0000      -5.695250      -154.9756 
  34   1.0000      -5.695217      -154.9747 
  35   1.0000      -5.695211      -154.9746 
  36   1.0000      -5.691422      -154.8715 
  37   1.0000      -5.691366      -154.8700 
  38   1.0000      -5.691333      -154.8691 
  39   1.0000      -5.691324      -154.8688 
  40   1.0000      -5.684811      -154.6916 
  41   1.0000      -5.684754      -154.6900 
  42   1.0000      -5.684722      -154.6891 
[...]

Total number of grid points                  ...    13956
Total number of batches                      ...      236
Average number of points per batch           ...       59
Average number of grid points per atom       ...      436

Memory available               ... 880.4 MB
Memory needed per perturbation ...  17.8 MB
Perturbations treated per batch... 3
Number of batches              ... 1
     CP-SCF ITERATION   0:   4.5639e-02 (   3.0 sec   0/  3 done)
     CP-SCF ITERATION   1:   1.6888e-03 (   3.0 sec   0/  3 done)
     CP-SCF ITERATION   2:   3.7133e-04 (   3.0 sec   3/  3 done)
                    *** THE CP-SCF HAS CONVERGED ***

Forming final perturbed densities           ... done
Transforming perturbed density to AO basis  ... done

 Raw HFC matrix (all values in MHz): 
 -----------------------------------
                 0.3130              -0.2442              -0.6454
                -0.2447              -0.4492               0.2078
                -0.6449               0.2077               0.0161

 A(FC)          -0.0393              -0.0393              -0.0393
 A(SD)          -0.4579              -0.4920               0.9498
 A(ORB+DIA)      0.0029               0.0027              -0.0080    A(PC) =  -0.0008
 A(ORB)          0.0030               0.0028              -0.0082    A(PC) =  -0.0008
 A(DIA)         -0.0000              -0.0001               0.0002    A(PC) =   0.0000
             ----------           ----------           ----------
 A(Tot)         -0.4942              -0.5285               0.9026    A(iso)=   -0.0400
 Orientation: 
  X          -0.6495530           -0.0179632            0.7601041
  Y          -0.2960138            0.9268161           -0.2310579
  Z          -0.7003262           -0.3750856           -0.6073335

Notes:  (1) The A matrix conforms to the "SAI" spin Hamiltonian convention.
        (2) Tensor is right-handed.

 Raw EFG matrix (all values in a.u.**-3):
 -----------------------------------
             0.1400       0.0035       0.2048
             0.0035      -0.1434      -0.0003
             0.2048      -0.0003       0.0034

 V(El)       0.5982       0.4581      -1.0563
 V(Nuc)     -0.7397      -0.6042       1.3439
         ----------   ----------   ----------
 V(Tot)     -0.1415      -0.1462       0.2876 
 Orientation: 
  X       0.3747090   -0.4487476    0.8113068
  Y       0.7621058    0.6474236    0.0061158
  Z      -0.5280036    0.6160100    0.5845886

Note: Tensor is right-handed


 Quadrupole tensor eigenvalues (in MHz;Q= 0.0029 I=  1.0)
  e**2qQ            =     0.193149 MHz 
  e**2qQ/(4I*(2I-1))=     0.048287 MHz 
  eta               =     0.016245
  NOTE: the diagonal representation of the SH term I*Q*I = e**2qQ/(4I(2I-1))*[-(1-eta),-(1+eta),2]

 RHO(0)=      0.441149048 a.u.**-3

 -----------------------------------------------------------
 Nucleus  31H : A:ISTP=    1 I=  0.5 P=533.5514 MHz/au**3
                Q:ISTP=    2 I=  1.0 Q=  0.0029 barn     
 -----------------------------------------------------------
 Solving for nuclear perturbation:
Forming RHS of the CP-SCF equations         ... 
Calc. nucleus orbit integrals (SHARK)       ... done

------------------------------------------------------------------------------
                           ORCA CP-SCF CALCULATION
------------------------------------------------------------------------------

Input orbitals are from        ... input.gbw
Input Perturbation             ... input.pin.tmp
Wavefunction output            ... input.pout.tmp
Perturbation mode              ... Imaginary perturbation
Solver                         ... POPLE
Max. number of iterations      ... 64
Convergence tolerance          ... 1.000e-03
Integral handling              ... Direct
DFT GridXC                     ... 1
COSX GridX                     ... 1
COSX IntAccX                   ... 3.067
COSX Algorithm                 ... Auto
Number of perturbations        ... 3
Number of operators            ... 2
Orbital ranges used for CP-SCF:
 Operator 0:  Orbitals   0...116  to 117...516
 Operator 1:  Orbitals   0...115  to 116...516
Variables per perturbation     ... 93316
DFT calculation                         ... on
XC functional terms                     ... off
Hybrid DFT                              ... on
   Exchange mixing (SCF)                ...  0.200
   Exchange mixing (CP-SCF)             ...  0.200
   GGA exch. scaling(SCF)               ...  0.720
   GGA exch. scaling (CP-SCF)           ...  0.720
   GGA corr. scaling (SCF)              ...  0.810
   GGA corr. scaling (CP-SCF)           ...  0.810

CP-SCF GRID
-----------

General Integration Accuracy     IntAcc      ... 3.467
Radial Grid Type                 RadialGrid  ... OptM3 with GC (2021)
Angular Grid (max. ang.)         AngularGrid ... 1 (Lebedev-50)
Angular grid pruning method      GridPruning ... 4 (adaptive)
Weight generation scheme         WeightScheme... Becke
Basis function cutoff            BFCut       ... 1.0000e-10
Integration weight cutoff        WCut        ... 1.0000e-14
Angular grids for H and He will be reduced by one unit
Partially contracted basis set               ... off
Rotationally invariant grid construction     ... off

Total number of grid points                  ...    31394
Total number of batches                      ...      503
Average number of points per batch           ...       62
Average number of grid points per atom       ...      981

CP-SCF GRIDX
------------

General Integration Accuracy     IntAcc      ... 3.067
Radial Grid Type                 RadialGrid  ... OptM3 with GC (2021)
Angular Grid (max. ang.)         AngularGrid ... 1 (Lebedev-50)
Angular grid pruning method      GridPruning ... 4 (adaptive)
Weight generation scheme         WeightScheme... Becke
Basis function cutoff            BFCut       ... 1.0000e-10
Integration weight cutoff        WCut        ... 1.0000e-14
Angular grids for H and He will be reduced by one unit
Partially contracted basis set               ... on
Rotationally invariant grid construction     ... off

Total number of grid points                  ...    13956
Total number of batches                      ...      236
Average number of points per batch           ...       59
Average number of grid points per atom       ...      436

Memory available               ... 879.7 MB
Memory needed per perturbation ...  17.8 MB
Perturbations treated per batch... 3
Number of batches              ... 1
     CP-SCF ITERATION   0:   4.1554e-02 (   2.9 sec   0/  3 done)
     CP-SCF ITERATION   1:   1.3389e-03 (   3.0 sec   0/  3 done)
     CP-SCF ITERATION   2:   2.4049e-04 (   3.0 sec   3/  3 done)
                    *** THE CP-SCF HAS CONVERGED ***

Forming final perturbed densities           ... done
Transforming perturbed density to AO basis  ... done

 Raw HFC matrix (all values in MHz): 
 -----------------------------------
                 0.2853              -0.2001              -0.2790
                -0.2002              -0.1824               0.1033
                -0.2780               0.1030              -0.1302

 A(FC)          -0.0088              -0.0088              -0.0088
 A(SD)          -0.2491              -0.2633               0.5124
 A(ORB+DIA)      0.0015               0.0019              -0.0042    A(PC) =  -0.0003
 A(ORB)          0.0016               0.0019              -0.0043    A(PC) =  -0.0003
 A(DIA)         -0.0001              -0.0000               0.0001    A(PC) =  -0.0000
             ----------           ----------           ----------
 A(Tot)         -0.2564              -0.2703               0.4994    A(iso)=   -0.0091
 Orientation: 
  X           0.3510892           -0.3968278           -0.8480943
  Y           0.9362934            0.1580132            0.3136662
  Z           0.0095386           -0.9041900            0.4270240

Notes:  (1) The A matrix conforms to the "SAI" spin Hamiltonian convention.
        (2) Tensor is right-handed.

 Raw EFG matrix (all values in a.u.**-3):
 -----------------------------------
            -0.0016      -0.1945      -0.0709
            -0.1945       0.1144       0.0881
            -0.0709       0.0881      -0.1128

 V(El)       0.5410       0.8262      -1.3671
 V(Nuc)     -0.6823      -0.9759       1.6582
         ----------   ----------   ----------
 V(Tot)     -0.1413      -0.1497       0.2910 
 Orientation: 
  X       0.3591400    0.7330948    0.5775729
  Y       0.5364456    0.3442610   -0.7705261
  Z      -0.7637045    0.5865632   -0.2696276

Note: Tensor is right-handed


 Quadrupole tensor eigenvalues (in MHz;Q= 0.0029 I=  1.0)
  e**2qQ            =     0.195426 MHz 
  e**2qQ/(4I*(2I-1))=     0.048857 MHz 
  eta               =     0.028763
  NOTE: the diagonal representation of the SH term I*Q*I = e**2qQ/(4I(2I-1))*[-(1-eta),-(1+eta),2]

 RHO(0)=      0.444948656 a.u.**-3

 -----------------------------------------------------------
 Nucleus   0V : A:ISTP=   51 I=  3.5 P=140.5173 MHz/au**3
                Q:ISTP=   51 I=  3.5 Q= -0.0430 barn     
 -----------------------------------------------------------
 Solving for nuclear perturbation:
Forming RHS of the CP-SCF equations         ... 
Calc. nucleus orbit integrals (SHARK)       ... done

------------------------------------------------------------------------------
                           ORCA CP-SCF CALCULATION
------------------------------------------------------------------------------

Input orbitals are from        ... input.gbw
Input Perturbation             ... input.pin.tmp
Wavefunction output            ... input.pout.tmp
Perturbation mode              ... Imaginary perturbation
Solver                         ... POPLE
Max. number of iterations      ... 64
Convergence tolerance          ... 1.000e-03
Integral handling              ... Direct
DFT GridXC                     ... 1
COSX GridX                     ... 1
COSX IntAccX                   ... 3.067
COSX Algorithm                 ... Auto
Number of perturbations        ... 3
Number of operators            ... 2
Orbital ranges used for CP-SCF:
 Operator 0:  Orbitals   0...116  to 117...516
 Operator 1:  Orbitals   0...115  to 116...516
Variables per perturbation     ... 93316
DFT calculation                         ... on
XC functional terms                     ... off
Hybrid DFT                              ... on
   Exchange mixing (SCF)                ...  0.200
   Exchange mixing (CP-SCF)             ...  0.200
   GGA exch. scaling(SCF)               ...  0.720
   GGA exch. scaling (CP-SCF)           ...  0.720
   GGA corr. scaling (SCF)              ...  0.810
   GGA corr. scaling (CP-SCF)           ...  0.810

CP-SCF GRID
-----------

General Integration Accuracy     IntAcc      ... 3.467
Radial Grid Type                 RadialGrid  ... OptM3 with GC (2021)
Angular Grid (max. ang.)         AngularGrid ... 1 (Lebedev-50)
Angular grid pruning method      GridPruning ... 4 (adaptive)
Weight generation scheme         WeightScheme... Becke
Basis function cutoff            BFCut       ... 1.0000e-10
Integration weight cutoff        WCut        ... 1.0000e-14
Angular grids for H and He will be reduced by one unit
Partially contracted basis set               ... off
Rotationally invariant grid construction     ... off

Total number of grid points                  ...    31394
Total number of batches                      ...      503
Average number of points per batch           ...       62
Average number of grid points per atom       ...      981

CP-SCF GRIDX
------------

General Integration Accuracy     IntAcc      ... 3.067
Radial Grid Type                 RadialGrid  ... OptM3 with GC (2021)
Angular Grid (max. ang.)         AngularGrid ... 1 (Lebedev-50)
Angular grid pruning method      GridPruning ... 4 (adaptive)
Weight generation scheme         WeightScheme... Becke
Basis function cutoff            BFCut       ... 1.0000e-10
Integration weight cutoff        WCut        ... 1.0000e-14
Angular grids for H and He will be reduced by one unit
Partially contracted basis set               ... on
Rotationally invariant grid construction     ... off

Total number of grid points                  ...    13956
Total number of batches                      ...      236
Average number of points per batch           ...       59
Average number of grid points per atom       ...      436

Memory available               ... 878.9 MB
Memory needed per perturbation ...  17.8 MB
Perturbations treated per batch... 3
Number of batches              ... 1
     CP-SCF ITERATION   0:   1.2604e+01 (   3.1 sec   0/  3 done)
     CP-SCF ITERATION   1:   1.8674e+00 (   2.9 sec   0/  3 done)
     CP-SCF ITERATION   2:   3.2962e-01 (   3.0 sec   0/  3 done)
     CP-SCF ITERATION   3:   3.7478e-02 (   3.0 sec   0/  3 done)
     CP-SCF ITERATION   4:   4.0176e-03 (   3.0 sec   0/  3 done)
     CP-SCF ITERATION   5:   6.4098e-04 (   2.9 sec   3/  3 done)
                    *** THE CP-SCF HAS CONVERGED ***

Forming final perturbed densities           ... done
Transforming perturbed density to AO basis  ... done

 Raw HFC matrix (all values in MHz): 
 -----------------------------------
               -84.8929              -0.2448               8.9931
                -0.2350             -71.2813               5.3178
                 8.9418               5.3181            -373.5933

 A(FC)        -165.4892            -165.4892            -165.4892
 A(SD)         100.8251              88.5374            -189.3624
 A(ORB+DIA)     -6.5231              -7.6632             -19.1135    A(PC) = -11.0999
 A(ORB)         -6.5227              -7.6636             -19.1134    A(PC) = -11.0999
 A(DIA)         -0.0004               0.0005              -0.0001    A(PC) =  -0.0000
             ----------           ----------           ----------
 A(Tot)        -71.1872             -84.6150            -373.9652    A(iso)= -176.5891
 Orientation: 
  X           0.0064484            0.9994953           -0.0311049
  Y          -0.9998280            0.0059034           -0.0175821
  Z          -0.0173896            0.0312129            0.9993615

Notes:  (1) The A matrix conforms to the "SAI" spin Hamiltonian convention.
        (2) Tensor is right-handed.

 Raw EFG matrix (all values in a.u.**-3):
 -----------------------------------
            -0.2030       0.0013      -0.0196
             0.0013      -0.0976      -0.0081
            -0.0196      -0.0081       0.3006

 V(El)       0.1397      -0.4675       0.3278
 V(Nuc)     -0.2374       0.2637      -0.0263
         ----------   ----------   ----------
 V(Tot)     -0.0977      -0.2038       0.3015 
 Orientation: 
  X      -0.0087559    0.9992050   -0.0388936
  Y      -0.9997466   -0.0095541   -0.0203851
  Z      -0.0207404    0.0387053    0.9990354

Note: Tensor is right-handed


 Quadrupole tensor eigenvalues (in MHz;Q=-0.0430 I=  3.5)
  e**2qQ            =    -3.046501 MHz 
  e**2qQ/(4I*(2I-1))=    -0.036268 MHz 
  eta               =     0.351678
  NOTE: the diagonal representation of the SH term I*Q*I = e**2qQ/(4I(2I-1))*[-(1-eta),-(1+eta),2]

 RHO(0)=   8115.215717659 a.u.**-3


--------------------------------------------------------------------------------
----------------------------------------------------------------------------
                           ORCA EULER ANGLE PROGRAM
----------------------------------------------------------------------------

Only g-tensor available        -->  using g-tensor as reference tensor

Reference tensor               ...  g

g-tensor ordering              ...  |g_min> --> |gx>
                                    |g_mid> --> |gy>
                                    |g_max> --> |gz>

A- and EFG-tensor ordering     ...  the axes |Ax>, |Qx>, |Ay>, etc. are assigned
                                    such that the Euler rotation is minimal. You
                                    can find the respective eigenvalues as Ax,
                                    EFGx, Ay, etc. in the tables below.
                                    The relation of |Ax>, |Ay>,  etc. to Amin, Amid, etc.
                                    (as printed in the ORCA EPR/NMR CALCULATION Output)
                                    is obtained in the detailed printout.

Euler rotation around          ...  z - y - z
   First rotation              -->  by alpha around z
   Second rotation             -->  by beta around y'
   Third rotation              -->  by gamma around z''
   Positive / Negative angle   -->  clockwise / counterclockwise rotation

Plot EFG-tensors                    (-)
Plot HFC-tensors                    (-)
Detailed Printout                   (-)

-------------------------------------------------------------------------
          Euler rotation of hyperfine tensor to g-tensor
-------------------------------------------------------------------------

-------------------------------------------------------------------
 Atom  |   Alpha    Beta    Gamma   |   Ax       Ay       Az 
       |          [degrees]         |           [MHz]         
-------------------------------------------------------------------
 19H     -141.1     24.0   -176.2      -0.49     0.90    -0.53
 20H      -64.3     21.9     90.8      -0.27     0.49    -0.26
 21H      -48.8      0.7     81.5      -0.12     0.46    -0.12
 22H      -14.6      2.4     33.4      -0.22     0.45    -0.22
 23H      115.0     20.6    -88.5      -0.27     0.50    -0.26
 24H       35.9     24.1      6.5      -0.50     0.90    -0.53
 26H       68.3     20.2    -95.4      -0.27     0.50    -0.26
 27H      142.1     23.4    175.1      -0.49     0.90    -0.53
 28H     -170.8      3.3    151.6      -0.22     0.45    -0.22
 29H     -152.3      0.8    119.1      -0.12     0.47    -0.12
 30H      -40.5     23.0     -2.7      -0.49     0.90    -0.53
 31H     -114.0     21.5     86.8      -0.27     0.50    -0.26
  0V      -91.3      0.6     90.8    -373.97   -84.62   -71.19
-------------------------------------------------------------------


-------------------------------------------------------------------------------
    Euler rotation of Electric Field Gradient (EFG) tensor to g-tensor
-------------------------------------------------------------------------------

-------------------------------------------------------------------
 Atom  |   Alpha    Beta    Gamma  |   EFGx     EFGy     EFGz
       |          [degrees]        |         [a.u.**-3]       
-------------------------------------------------------------------
 19H      179.5     41.5    146.2     -0.15     0.29    -0.14
 20H       33.9     38.2    -64.3     -0.14    -0.15     0.29
 21H     -101.9      0.6     82.7      0.28    -0.14    -0.14
 22H     -118.5      0.7     83.0     -0.15     0.29    -0.14
 23H     -145.1     39.3    115.1     -0.14    -0.15     0.29
 24H       -2.1     41.2    -32.4     -0.15     0.29    -0.14
 26H      -35.5     39.3     65.0     -0.14    -0.15     0.29
 27H     -177.3     41.4   -148.4     -0.15     0.29    -0.14
 28H      -80.4      0.8    115.4     -0.15     0.29    -0.14
 29H      -97.5      0.8    116.1      0.28    -0.14    -0.14
 30H        0.2     41.7     33.4     -0.15     0.29    -0.14
 31H      146.5     38.4   -116.6     -0.14    -0.15     0.29
  0V      -96.6      1.4     96.6      0.30    -0.20    -0.10
-------------------------------------------------------------------


Maximum memory used throughout the entire EPRNMR-calculation: 208.4 MB

Timings for individual modules:

Sum of individual times         ...     1883.062 sec (=  31.384 min)
GTO integral calculation        ...        2.052 sec (=   0.034 min)   0.1 %
Spin-Orbit-Coupling Matrices    ...        8.515 sec (=   0.142 min)   0.5 %
SCF iterations                  ...       30.938 sec (=   0.516 min)   1.6 %
EPR/NMR calculation             ...     1841.558 sec (=  30.693 min)  97.8 %
                             ****ORCA TERMINATED NORMALLY****
TOTAL RUN TIME: 0 days 0 hours 31 minutes 24 seconds 906 msec
