
                                 *****************
                                 * O   R   C   A *
                                 *****************

                                            #,                                       
                                            ###                                      
                                            ####                                     
                                            #####                                    
                                            ######                                   
                                           ########,                                 
                                     ,,################,,,,,                         
                               ,,#################################,,                 
                          ,,##########################################,,             
                       ,#########################################, ''#####,          
                    ,#############################################,,   '####,        
                  ,##################################################,,,,####,       
                ,###########''''           ''''###############################       
              ,#####''   ,,,,##########,,,,          '''####'''          '####       
            ,##' ,,,,###########################,,,                        '##       
           ' ,,###''''                  '''############,,,                           
         ,,##''                                '''############,,,,        ,,,,,,###''
      ,#''                                            '''#######################'''  
     '                                                          ''''####''''         
             ,#######,   #######,   ,#######,      ##                                
            ,#'     '#,  ##    ##  ,#'     '#,    #''#        ######   ,####,        
            ##       ##  ##   ,#'  ##            #'  '#       #        #'  '#        
            ##       ##  #######   ##           ,######,      #####,   #    #        
            '#,     ,#'  ##    ##  '#,     ,#' ,#      #,         ##   #,  ,#        
             '#######'   ##     ##  '#######'  #'      '#     #####' # '####'        



                  #######################################################
                  #                        -***-                        #
                  #          Department of theory and spectroscopy      #
                  #    Directorship and core code : Frank Neese         #
                  #        Max Planck Institute fuer Kohlenforschung    #
                  #                Kaiser Wilhelm Platz 1               #
                  #                 D-45470 Muelheim/Ruhr               #
                  #                      Germany                        #
                  #                                                     #
                  #                  All rights reserved                #
                  #                        -***-                        #
                  #######################################################


                         Program Version 5.0.3 -  RELEASE  -


 With contributions from (in alphabetic order):
   Daniel Aravena         : Magnetic Suceptibility
   Michael Atanasov       : Ab Initio Ligand Field Theory (pilot matlab implementation)
   Alexander A. Auer      : GIAO ZORA, VPT2 properties, NMR spectrum
   Ute Becker             : Parallelization
   Giovanni Bistoni       : ED, misc. LED, open-shell LED, HFLD
   Martin Brehm           : Molecular dynamics
   Dmytro Bykov           : SCF Hessian
   Vijay G. Chilkuri      : MRCI spin determinant printing, contributions to CSF-ICE
   Dipayan Datta          : RHF DLPNO-CCSD density
   Achintya Kumar Dutta   : EOM-CC, STEOM-CC
   Dmitry Ganyushin       : Spin-Orbit,Spin-Spin,Magnetic field MRCI
   Miquel Garcia          : C-PCM and meta-GGA Hessian, CC/C-PCM, Gaussian charge scheme
   Yang Guo               : DLPNO-NEVPT2, F12-NEVPT2, CIM, IAO-localization
   Andreas Hansen         : Spin unrestricted coupled pair/coupled cluster methods
   Benjamin Helmich-Paris : MC-RPA, TRAH-SCF, COSX integrals
   Lee Huntington         : MR-EOM, pCC
   Robert Izsak           : Overlap fitted RIJCOSX, COSX-SCS-MP3, EOM
   Marcus Kettner         : VPT2
   Christian Kollmar      : KDIIS, OOCD, Brueckner-CCSD(T), CCSD density, CASPT2, CASPT2-K
   Simone Kossmann        : Meta GGA functionals, TD-DFT gradient, OOMP2, MP2 Hessian
   Martin Krupicka        : Initial AUTO-CI
   Lucas Lang             : DCDCAS
   Marvin Lechner         : AUTO-CI (C++ implementation), FIC-MRCC
   Dagmar Lenk            : GEPOL surface, SMD
   Dimitrios Liakos       : Extrapolation schemes; Compound Job, initial MDCI parallelization
   Dimitrios Manganas     : Further ROCIS development; embedding schemes
   Dimitrios Pantazis     : SARC Basis sets
   Anastasios Papadopoulos: AUTO-CI, single reference methods and gradients
   Taras Petrenko         : DFT Hessian,TD-DFT gradient, ASA, ECA, R-Raman, ABS, FL, XAS/XES, NRVS
   Peter Pinski           : DLPNO-MP2, DLPNO-MP2 Gradient
   Christoph Reimann      : Effective Core Potentials
   Marius Retegan         : Local ZFS, SOC
   Christoph Riplinger    : Optimizer, TS searches, QM/MM, DLPNO-CCSD(T), (RO)-DLPNO pert. Triples
   Tobias Risthaus        : Range-separated hybrids, TD-DFT gradient, RPA, STAB
   Michael Roemelt        : Original ROCIS implementation
   Masaaki Saitow         : Open-shell DLPNO-CCSD energy and density
   Barbara Sandhoefer     : DKH picture change effects
   Avijit Sen             : IP-ROCIS
   Kantharuban Sivalingam : CASSCF convergence, NEVPT2, FIC-MRCI
   Bernardo de Souza      : ESD, SOC TD-DFT
   Georgi Stoychev        : AutoAux, RI-MP2 NMR, DLPNO-MP2 response
   Willem Van den Heuvel  : Paramagnetic NMR
   Boris Wezisla          : Elementary symmetry handling
   Frank Wennmohs         : Technical directorship


 We gratefully acknowledge several colleagues who have allowed us to
 interface, adapt or use parts of their codes:
   Stefan Grimme, W. Hujo, H. Kruse, P. Pracht,  : VdW corrections, initial TS optimization,
                  C. Bannwarth, S. Ehlert          DFT functionals, gCP, sTDA/sTD-DF
   Ed Valeev, F. Pavosevic, A. Kumar             : LibInt (2-el integral package), F12 methods
   Garnet Chan, S. Sharma, J. Yang, R. Olivares  : DMRG
   Ulf Ekstrom                                   : XCFun DFT Library
   Mihaly Kallay                                 : mrcc  (arbitrary order and MRCC methods)
   Jiri Pittner, Ondrej Demel                    : Mk-CCSD
   Frank Weinhold                                : gennbo (NPA and NBO analysis)
   Christopher J. Cramer and Donald G. Truhlar   : smd solvation model
   Lars Goerigk                                  : TD-DFT with DH, B97 family of functionals
   V. Asgeirsson, H. Jonsson                     : NEB implementation
   FAccTs GmbH                                   : IRC, NEB, NEB-TS, DLPNO-Multilevel, CI-OPT
                                                   MM, QMMM, 2- and 3-layer-ONIOM, Crystal-QMMM,
                                                   LR-CPCM, SF, NACMEs, symmetry and pop. for TD-DFT,
                                                   nearIR, NL-DFT gradient (VV10), updates on ESD,
                                                   ML-optimized integration grids
   S Lehtola, MJT Oliveira, MAL Marques          : LibXC Library
   Liviu Ungur et al                             : ANISO software


 Your calculation uses the libint2 library for the computation of 2-el integrals
 For citations please refer to: http://libint.valeyev.net

 Your ORCA version has been built with support for libXC version: 5.1.0
 For citations please refer to: https://tddft.org/programs/libxc/

 This ORCA versions uses:
   CBLAS   interface :  Fast vector & matrix operations
   LAPACKE interface :  Fast linear algebra routines
   SCALAPACK package :  Parallel linear algebra routines
   Shared memory     :  Shared parallel matrices
   BLAS/LAPACK       :  OpenBLAS 0.3.15  USE64BITINT DYNAMIC_ARCH NO_AFFINITY Prescott SINGLE_THREADED
        Core in use  :  Prescott
   Copyright (c) 2011-2014, The OpenBLAS Project


================================================================================

----- Orbital basis set information -----
Your calculation utilizes the basis: TZVP 

The basis set includes element-specific modifications.

Your calculation utilizes the basis: CP(PPP) 

----- AuxJ basis set information -----
Your calculation utilizes the auxiliary basis: def2/J
   F. Weigend, Phys. Chem. Chem. Phys. 8, 1057 (2006).

================================================================================
                                        WARNINGS
                       Please study these warnings very carefully!
================================================================================


WARNING: your system is open-shell and RHF/RKS was chosen
  ===> : WILL SWITCH to UHF/UKS


INFO   : the flag for use of the SHARK integral package has been found!

================================================================================
                                       INPUT FILE
================================================================================
NAME = input_0.inp
|  1> ! nofrozencore ReducedPop printbasis
|  2> ! B3LYP TZVP
|  3> ! moread
|  4> %moinp "start.gbw"
|  5> 
|  6> %basis
|  7> newgto V "CP(PPP)" end
|  8> end
|  9> 
| 10> %pal
| 11> nprocs 4
| 12> end
| 13> 
| 14> % sym SymThresh 1e-2 end
| 15> * xyz -2 2 
| 16> V 0.2756038667951198 -0.0013549185673533174 1.077508911736479
| 17> S 1.7094091909991276 1.814332460410787 0.21504853685854997
| 18> S -1.5913109823788143 1.594216959612071 0.7765223020578331
| 19> S 1.8931919664967551 -1.5513054170122655 0.033176864595399154
| 20> S -1.3642783778246879 -1.7433187086350868 0.481124257660012
| 21> O 0.5003202943011336 -0.07781047834829224 2.6476603014787856
| 22> C -2.9498813981957768 0.4821340251566776 0.9006107017235886
| 23> C -2.8682770940009332 -0.8566576592884648 0.7823062452027398
| 24> C 3.1069385262578795 0.9067882000083671 -0.3479458301281177
| 25> C 3.173684457089563 -0.43640308449729814 -0.4330005310996948
| 26> S -4.603454913700354 1.146967743792028 1.1356476488488731
| 27> S -4.3911119577313364 -1.7750997194547358 0.8550551940630294
| 28> S 4.696674375793125 -1.1205193166698484 -1.1019737598671728
| 29> S 4.54052506420893 1.8170339843522185 -0.9247860191443549
| 30> C -5.4640963902770485 -0.3966965494841472 1.0592285976972065
| 31> C 5.488191797613512 0.41448175865857534 -1.4401765605119468
| 32> C -6.830621395320255 -0.5118185258718211 1.1770791443284396
| 33> C 6.717464171713415 0.5055452400870183 -2.051994104840013
| 34> S -7.873194457539244 0.9154890311347418 1.4429511423042793
| 35> S -7.65863193917121 -2.082116695015204 1.0978953976556387
| 36> S 7.480508529618681 2.0842569331968126 -2.3779217436327014
| 37> S 7.619506359148208 -0.9311095234205452 -2.5845111068450626
| 38> C 7.636671598310315 -0.5780052435320734 -4.394609371065754
| 39> C 7.5245113266662065 1.9798132010587113 -4.221749903401755
| 40> C 8.277547112659056 0.7656946754532501 -4.755958781300996
| 41> H 6.606774677664026 -0.6353004814965324 -4.763142994362532
| 42> H 8.19899732570801 -1.3938188748426408 -4.838886293034571
| 43> H 8.32421664695784 0.8394777322323476 -5.8538788344647985
| 44> H 9.303441375154136 0.7756761102357325 -4.391745620887768
| 45> H 8.023787075146993 2.9032164278945642 -4.5570200751102945
| 46> H 6.499111382220399 1.9931652156275383 -4.581316776284537
| 47> C -8.365830660056188 -2.0968186728779274 2.808010607320052
| 48> C -8.545568700725747 0.43782383622938953 3.1028840302542826
| 49> C -9.26516351653015 -0.9063445913631457 3.112024582518532
| 50> H -7.720588663681938 0.44576419793928435 3.822994960603545
| 51> H -9.247628616559068 1.2399249544876878 3.3722179015594285
| 52> H -10.100474473625763 -0.8837881808646971 2.3928951395669826
| 53> H -9.703637546159547 -1.060960769966976 4.116813005807612
| 54> H -8.936780540979884 -3.032394304640451 2.864123497450345
| 55> H -7.5457056609595945 -2.162950861078337 3.525427579707084
| 56> * 
| 57> 
| 58> % eprnmr
| 59> gtensor true
| 60> Nuclei = all H {aiso,adip,aorb,fgrad,rho}
| 61> Nuclei = all V {aiso,adip,aorb,fgrad,rho}
| 62> end
| 63> 
| 64>                          ****END OF INPUT****
================================================================================

------------------------------------------------------------------------------
                            SYMMETRY HANDLING SETUP
------------------------------------------------------------------------------

------------------
SYMMETRY DETECTION
------------------
The point group will now be determined using a tolerance of 1.0000e-02.
Splitting atom subsets according to nuclear charge, mass and basis set.
Splitting atom subsets according to distance from the molecule's center.
Identifying relative distance patterns of the atoms.
Splitting atom subsets according to atoms' relative distance patterns.
Bring atoms of each subset into input order.
The molecule is neither linear nor planar.
There is at least one atom subset not centered around the molecule's center.
The molecule does not have a center of inversion.
Analyzing the first atom subset for its symmetry.
The subset consists of a single off-center atom.
No testing is needed for point group C1.
This point group has been found:    C1
Largest non-degenerate subgroup:    C1


Mass-centered symmetry-perfected Cartesians (point group C1):

Atom          Symmetry-perfected Cartesians (x, y, z; au)
  0       0.514912691744   -0.001454498450    2.032367252367
  1       3.224412083848    3.429697392636    0.402553342488
  2      -3.013045088545    3.013739378296    1.463584990097
  3       3.571711197671   -2.930436461646    0.058865690393
  4      -2.584015642467   -3.293288996885    0.905363585689
  5       0.939565197524   -0.145934567852    4.999523367775
  6      -5.580371108087    0.912207193967    1.698078081861
  7      -5.426161321809   -1.617742440005    1.474515058615
  8       5.865359791608    1.714687286063   -0.661351826057
  9       5.991491321434   -0.823576387122   -0.822081917296
 10      -8.705172194696    2.168560846785    2.142233543281
 11      -8.303902161447   -3.353346403594    1.611990648491
 12       8.869525172506   -2.116368709698   -2.086258110591
 13       8.574445737612    3.434802533030   -1.751421806337
 14     -10.331548884919   -0.748541910220    1.997822465190
 15      10.365276329974    0.784362937947   -2.725368781535
 16     -12.913906899606   -0.966090917589    2.220527723056
 17      12.688264461018    0.956447978648   -3.881536384243
 18     -14.884084461804    1.731129474030    2.722952985909
 19     -14.478620063484   -3.933524405868    2.070892127587
 20      14.130209325493    3.939780723045   -4.497450361037
 21      14.392877156513   -1.758436073375   -4.887847679690
 22      14.425314757553   -1.091165687670   -8.308437674553
 23      14.213362561039    3.742410672899   -7.981780621013
 24      15.636393965608    1.448059165384   -8.991289098552
 25      12.479091631363   -1.199437996201   -9.004865293726
 26      15.487956380393   -2.632830027167   -9.147999384696
 27      15.724586604230    1.587488936021  -11.066057315971
 28      17.575053164085    1.466921343547   -8.303025971001
 29      15.156856990977    5.487389882798   -8.615349426415
 30      12.275637488299    3.767642323770   -8.661263537592
 31     -15.815031968216   -3.961307117655    5.302541531306
 32     -16.154687640929    0.828473071952    5.859771544824
 33     -17.514524770189   -1.711637134061    5.877044685316
 34     -14.595701304964    0.843478180988    7.220583989227
 35     -17.481388611458    2.344224517173    6.368738800179
 36     -19.093033715763   -1.669011695655    4.518086983298
 37     -18.343120603025   -2.003819367496    7.775819627867
 38     -16.893970879357   -5.729288839257    5.408579526235
 39     -14.265220324341   -4.086278841991    6.658263132944


------------------
SYMMETRY REDUCTION
------------------
ORCA supports only abelian point groups.
It is now checked, if the determined point group is supported:
Point Group ( C1    ) is          ... supported

The point group is C1 - hence turning off symmetry
If this is a round-off problem, please increase the symmetry
        detection tolerance (%method SymThresh)

Storing the symmetry object:
Symmetry file                     ... input_0.sym.tmp
Writing symmetry information      ... done

                       ****************************
                       * Single Point Calculation *
                       ****************************

---------------------------------
CARTESIAN COORDINATES (ANGSTROEM)
---------------------------------
  V      0.272480   -0.000770    1.075482
  S      1.706285    1.814918    0.213022
  S     -1.594435    1.594802    0.774496
  S      1.890068   -1.550720    0.031150
  S     -1.367402   -1.742733    0.479098
  O      0.497196   -0.077225    2.645634
  C     -2.953005    0.482719    0.898584
  C     -2.871401   -0.856072    0.780280
  C      3.103815    0.907373   -0.349972
  C      3.170561   -0.435818   -0.435027
  S     -4.606579    1.147553    1.133621
  S     -4.394236   -1.774514    0.853029
  S      4.693551   -1.119934   -1.104000
  S      4.537401    1.817619   -0.926813
  C     -5.467220   -0.396111    1.057202
  C      5.485068    0.415067   -1.442203
  C     -6.833745   -0.511233    1.175053
  C      6.714340    0.506130   -2.054021
  S     -7.876318    0.916074    1.440925
  S     -7.661756   -2.081531    1.095869
  S      7.477385    2.084842   -2.379948
  S      7.616383   -0.930524   -2.586538
  C      7.633548   -0.577420   -4.396636
  C      7.521388    1.980398   -4.223776
  C      8.274423    0.766280   -4.757985
  H      6.603651   -0.634715   -4.765169
  H      8.195874   -1.393234   -4.840913
  H      8.321093    0.840063   -5.855905
  H      9.300318    0.776261   -4.393772
  H      8.020663    2.903802   -4.559047
  H      6.495988    1.993750   -4.583343
  C     -8.368954   -2.096233    2.805984
  C     -8.548693    0.438409    3.100858
  C     -9.268287   -0.905759    3.109998
  H     -7.723712    0.446349    3.820968
  H     -9.250752    1.240510    3.370191
  H    -10.103598   -0.883203    2.390869
  H     -9.706761   -1.060376    4.114787
  H     -8.939904   -3.031809    2.862097
  H     -7.548829   -2.162366    3.523401

----------------------------
CARTESIAN COORDINATES (A.U.)
----------------------------
  NO LB      ZA    FRAG     MASS         X           Y           Z
   0 V    23.0000    0    50.940    0.514913   -0.001454    2.032367
   1 S    16.0000    0    32.060    3.224412    3.429697    0.402553
   2 S    16.0000    0    32.060   -3.013045    3.013739    1.463585
   3 S    16.0000    0    32.060    3.571711   -2.930436    0.058866
   4 S    16.0000    0    32.060   -2.584016   -3.293289    0.905364
   5 O     8.0000    0    15.999    0.939565   -0.145935    4.999523
   6 C     6.0000    0    12.011   -5.580371    0.912207    1.698078
   7 C     6.0000    0    12.011   -5.426161   -1.617742    1.474515
   8 C     6.0000    0    12.011    5.865360    1.714687   -0.661352
   9 C     6.0000    0    12.011    5.991491   -0.823576   -0.822082
  10 S    16.0000    0    32.060   -8.705172    2.168561    2.142234
  11 S    16.0000    0    32.060   -8.303902   -3.353346    1.611991
  12 S    16.0000    0    32.060    8.869525   -2.116369   -2.086258
  13 S    16.0000    0    32.060    8.574446    3.434803   -1.751422
  14 C     6.0000    0    12.011  -10.331549   -0.748542    1.997822
  15 C     6.0000    0    12.011   10.365276    0.784363   -2.725369
  16 C     6.0000    0    12.011  -12.913907   -0.966091    2.220528
  17 C     6.0000    0    12.011   12.688264    0.956448   -3.881536
  18 S    16.0000    0    32.060  -14.884084    1.731129    2.722953
  19 S    16.0000    0    32.060  -14.478620   -3.933524    2.070892
  20 S    16.0000    0    32.060   14.130209    3.939781   -4.497450
  21 S    16.0000    0    32.060   14.392877   -1.758436   -4.887848
  22 C     6.0000    0    12.011   14.425315   -1.091166   -8.308438
  23 C     6.0000    0    12.011   14.213363    3.742411   -7.981781
  24 C     6.0000    0    12.011   15.636394    1.448059   -8.991289
  25 H     1.0000    0     1.008   12.479092   -1.199438   -9.004865
  26 H     1.0000    0     1.008   15.487956   -2.632830   -9.147999
  27 H     1.0000    0     1.008   15.724587    1.587489  -11.066057
  28 H     1.0000    0     1.008   17.575053    1.466921   -8.303026
  29 H     1.0000    0     1.008   15.156857    5.487390   -8.615349
  30 H     1.0000    0     1.008   12.275637    3.767642   -8.661264
  31 C     6.0000    0    12.011  -15.815032   -3.961307    5.302542
  32 C     6.0000    0    12.011  -16.154688    0.828473    5.859772
  33 C     6.0000    0    12.011  -17.514525   -1.711637    5.877045
  34 H     1.0000    0     1.008  -14.595701    0.843478    7.220584
  35 H     1.0000    0     1.008  -17.481389    2.344225    6.368739
  36 H     1.0000    0     1.008  -19.093034   -1.669012    4.518087
  37 H     1.0000    0     1.008  -18.343121   -2.003819    7.775820
  38 H     1.0000    0     1.008  -16.893971   -5.729289    5.408580
  39 H     1.0000    0     1.008  -14.265220   -4.086279    6.658263

--------------------------------
INTERNAL COORDINATES (ANGSTROEM)
--------------------------------
 V      0   0   0     0.000000000000     0.00000000     0.00000000
 S      1   0   0     2.469080044091     0.00000000     0.00000000
 S      1   2   0     2.474229902759    85.49488161     0.00000000
 S      1   2   3     2.471753877839    86.18768332   148.92984110
 S      1   2   3     2.465628982176   145.21244052    75.73242327
 O      1   2   3     1.587991911857   107.37412676   255.72182182
 C      3   1   2     1.760068168785    99.57773434   165.23852741
 C      7   3   1     1.346483709978   125.11759135   343.15126648
 C      2   1   3     1.758888138785   101.17311364   201.72493971
 C      9   2   1     1.347535583282   125.02065512     9.06447856
 S      7   3   1     1.797651693495   119.04926039   165.85220766
 S      8   7   3     1.779846692734   117.23428303   183.29076516
 S     10   9   2     1.798621275422   116.39436889   177.70020999
 S      9   2   1     1.793449846908   118.43723016   186.28509233
 C     12   8   7     1.758686347881    97.02533224     0.45713301
 C     13  10   9     1.759860581032    96.92426274   357.86139538
 C     15  12   8     1.376420143051   123.37430490   179.95250522
 C     16  13  10     1.376126387699   123.01945996   183.41828922
 S     17  15  12     1.787415276778   121.67091932   177.72572890
 S     17  15  12     1.776994053586   122.18848786   358.61757792
 S     18  16  13     1.783478659200   121.46705444   179.87793851
 S     18  16  13     1.777985200964   122.20072995     0.91219048
 C     22  18  16     1.844297428303    98.27774591   117.03488498
 C     21  18  16     1.847308047427    98.19532459   242.72473806
 C     24  21  18     1.525295320399   113.97494410   302.60247826
 H     23  22  18     1.095348092138   108.14656014   293.75666782
 H     23  22  18     1.085884012277   105.22032661   178.46632935
 H     25  24  21     1.101385685416   108.46507516   184.91150780
 H     25  24  21     1.088673455669   109.92325854   301.62586268
 H     24  21  18     1.101978166930   105.49097806   182.22423731
 H     24  21  18     1.086697592910   107.88370871    66.46478129
 C     20  17  15     1.850632380917    98.27388475   117.17702666
 C     19  17  15     1.853544807611    97.99067025   242.78939769
 C     32  20  17     1.522646584933   113.82822330    57.77442495
 H     33  19  17     1.095086691944   108.28537888    66.20136645
 H     33  19  17     1.099452165200   105.24884320   181.89646621
 H     34  32  20     1.102451968304   109.46766445    58.70245729
 H     34  32  20     1.107142905375   107.81427871   174.93318426
 H     32  20  17     1.097467168399   104.64473489   178.42298545
 H     32  20  17     1.091634367693   108.70418523   293.38061402

---------------------------
INTERNAL COORDINATES (A.U.)
---------------------------
 V      0   0   0     0.000000000000     0.00000000     0.00000000
 S      1   0   0     4.665885086063     0.00000000     0.00000000
 S      1   2   0     4.675616908574    85.49488161     0.00000000
 S      1   2   3     4.670937899573    86.18768332   148.92984110
 S      1   2   3     4.659363524171   145.21244052    75.73242327
 O      1   2   3     3.000869816291   107.37412676   255.72182182
 C      3   1   2     3.326046816037    99.57773434   165.23852741
 C      7   3   1     2.544485455644   125.11759135   343.15126648
 C      2   1   3     3.323816882505   101.17311364   201.72493971
 C      9   2   1     2.546473208117   125.02065512     9.06447856
 S      7   3   1     3.397069384886   119.04926039   165.85220766
 S      8   7   3     3.363422809632   117.23428303   183.29076516
 S     10   9   2     3.398901629193   116.39436889   177.70020999
 S      9   2   1     3.389129045579   118.43723016   186.28509233
 C     12   8   7     3.323435552961    97.02533224     0.45713301
 C     13  10   9     3.325654532033    96.92426274   357.86139538
 C     15  12   8     2.601057115579   123.37430490   179.95250522
 C     16  13  10     2.600501998414   123.01945996   183.41828922
 S     17  15  12     3.377725360698   121.67091932   177.72572890
 S     17  15  12     3.358032102884   122.18848786   358.61757792
 S     18  16  13     3.370286231581   121.46705444   179.87793851
 S     18  16  13     3.359905099986   122.20072995     0.91219048
 C     22  18  16     3.485217048988    98.27774591   117.03488498
 C     21  18  16     3.490906294626    98.19532459   242.72473806
 C     24  21  18     2.882390428905   113.97494410   302.60247826
 H     23  22  18     2.069907915454   108.14656014   293.75666782
 H     23  22  18     2.052023396408   105.22032661   178.46632935
 H     25  24  21     2.081317313257   108.46507516   184.91150780
 H     25  24  21     2.057294680485   109.92325854   301.62586268
 H     24  21  18     2.082436941057   105.49097806   182.22423731
 H     24  21  18     2.053560840992   107.88370871    66.46478129
 C     20  17  15     3.497188374501    98.27388475   117.17702666
 C     19  17  15     3.502692063337    97.99067025   242.78939769
 C     32  20  17     2.877385044274   113.82822330    57.77442495
 H     33  19  17     2.069413940676   108.28537888    66.20136645
 H     33  19  17     2.077663489575   105.24884320   181.89646621
 H     34  32  20     2.083332295898   109.46766445    58.70245729
 H     34  32  20     2.092196882272   107.81427871   174.93318426
 H     32  20  17     2.073912389244   104.64473489   178.42298545
 H     32  20  17     2.062889993316   108.70418523   293.38061402

---------------------
BASIS SET INFORMATION
---------------------
There are 5 groups of distinct atoms

 Group   1 Type V   : 17s11p5d1f contracted to 17s7p3d1f pattern {11111111111111111/3311111/311/1}
 Group   2 Type S   : 14s9p1d contracted to 5s4p1d pattern {73211/6111/1}
 Group   3 Type O   : 11s6p1d contracted to 5s3p1d pattern {62111/411/1}
 Group   4 Type C   : 11s6p1d contracted to 5s3p1d pattern {62111/411/1}
 Group   5 Type H   : 5s1p contracted to 3s1p pattern {311/1}

Atom   0V    basis set group =>   1
Atom   1S    basis set group =>   2
Atom   2S    basis set group =>   2
Atom   3S    basis set group =>   2
Atom   4S    basis set group =>   2
Atom   5O    basis set group =>   3
Atom   6C    basis set group =>   4
Atom   7C    basis set group =>   4
Atom   8C    basis set group =>   4
Atom   9C    basis set group =>   4
Atom  10S    basis set group =>   2
Atom  11S    basis set group =>   2
Atom  12S    basis set group =>   2
Atom  13S    basis set group =>   2
Atom  14C    basis set group =>   4
Atom  15C    basis set group =>   4
Atom  16C    basis set group =>   4
Atom  17C    basis set group =>   4
Atom  18S    basis set group =>   2
Atom  19S    basis set group =>   2
Atom  20S    basis set group =>   2
Atom  21S    basis set group =>   2
Atom  22C    basis set group =>   4
Atom  23C    basis set group =>   4
Atom  24C    basis set group =>   4
Atom  25H    basis set group =>   5
Atom  26H    basis set group =>   5
Atom  27H    basis set group =>   5
Atom  28H    basis set group =>   5
Atom  29H    basis set group =>   5
Atom  30H    basis set group =>   5
Atom  31C    basis set group =>   4
Atom  32C    basis set group =>   4
Atom  33C    basis set group =>   4
Atom  34H    basis set group =>   5
Atom  35H    basis set group =>   5
Atom  36H    basis set group =>   5
Atom  37H    basis set group =>   5
Atom  38H    basis set group =>   5
Atom  39H    basis set group =>   5

-------------------------
BASIS SET IN INPUT FORMAT
-------------------------

 # Basis set for element : H 
 NewGTO H 
 S 3 
   1      34.0613410000      0.0254393168
   2       5.1235746000      0.1900859340
   3       1.1646626000      0.8524411390
 S 1 
   1       0.3272304100      1.0000000000
 S 1 
   1       0.1030724100      1.0000000000
 P 1 
   1       0.8000000000      1.0000000000
  end;

 # Basis set for element : C 
 NewGTO C 
 S 6 
   1   13575.3496820000      0.0006064601
   2    2035.2333680000      0.0046978985
   3     463.2256235900      0.0243324735
   4     131.2001959800      0.0973999560
   5      42.8530158900      0.3019558443
   6      15.5841857700      0.6623361013
 S 2 
   1       6.2067138500      0.6559530795
   2       2.5764896500      0.3758563390
 S 1 
   1       0.5769633900      1.0000000000
 S 1 
   1       0.2297283100      1.0000000000
 S 1 
   1       0.0951644400      1.0000000000
 P 4 
   1      34.6972322400      0.0113272290
   2       7.9582622800      0.0761696612
   3       2.3780826900      0.3019225154
   4       0.8143320800      0.7278502776
 P 1 
   1       0.2888754700      1.0000000000
 P 1 
   1       0.1005682400      1.0000000000
 D 1 
   1       0.8000000000      1.0000000000
  end;

 # Basis set for element : O 
 NewGTO O 
 S 6 
   1   27032.3826310000      0.0005722654
   2    4052.3871392000      0.0044353333
   3     922.3272271000      0.0230201034
   4     261.2407098900      0.0928224938
   5      85.3546413500      0.2937849971
   6      31.0350352400      0.6740160462
 S 2 
   1      12.2608607300      0.6383993750
   2       4.9987076000      0.3953458663
 S 1 
   1       1.1703108200      1.0000000000
 S 1 
   1       0.4647474100      1.0000000000
 S 1 
   1       0.1850453600      1.0000000000
 P 4 
   1      63.2749548000      0.0120183316
   2      14.6270493800      0.0830054304
   3       4.4501223500      0.3199174388
   4       1.5275799600      0.7071554258
 P 1 
   1       0.5293511800      1.0000000000
 P 1 
   1       0.1747842100      1.0000000000
 D 1 
   1       1.2000000000      1.0000000000
  end;

 # Basis set for element : S 
 NewGTO S 
 S 7 
   1   60700.9281040000      0.0005238013
   2    9102.6106854000      0.0040506304
   3    2071.4166009000      0.0208270003
   4     586.0247682100      0.0814968475
   5     190.5539502100      0.2374911358
   6      67.6303842600      0.4472617145
   7      25.1273069100      0.3489191913
 S 3 
   1     112.5746301000      0.1004556993
   2      34.7955542200      0.4339117282
   3       6.5115556200     -1.2084330582
 S 2 
   1       3.2399032300      0.6749812922
   2       1.5477160900      0.3470879597
 S 1 
   1       0.4054103000      1.0000000000
 S 1 
   1       0.1455065100      1.0000000000
 P 6 
   1     564.3671602700      0.0025564845
   2     133.4262437900      0.0202874255
   3      42.4682711900      0.0927670112
   4      15.6165275800      0.2650208365
   5       6.1093988500      0.4486298663
   6       2.4404160200      0.3596369916
 P 1 
   1       0.8388220100      1.0000000000
 P 1 
   1       0.3128874700      1.0000000000
 P 1 
   1       0.1077010900      1.0000000000
 D 1 
   1       0.5500000000      1.0000000000
  end;

 # Basis set for element : V 
 NewGTO V 
 S 1 
   1  4239814.9912500000      1.0000000000
 S 1 
   1  1695925.9965000001      1.0000000000
 S 1 
   1  678370.3986000001      1.0000000000
 S 1 
   1  271348.1594400000      1.0000000000
 S 1 
   1   40672.0050780000      1.0000000000
 S 1 
   1    9257.0761385000      1.0000000000
 S 1 
   1    2622.7328773000      1.0000000000
 S 1 
   1     858.5948018500      1.0000000000
 S 1 
   1     314.1941865000      1.0000000000
 S 1 
   1     124.4786212700      1.0000000000
 S 1 
   1      50.4693993090      1.0000000000
 S 1 
   1      12.5138469110      1.0000000000
 S 1 
   1       5.3447758082      1.0000000000
 S 1 
   1       1.5755631295      1.0000000000
 S 1 
   1       0.6306903307      1.0000000000
 S 1 
   1       0.0879544416      1.0000000000
 S 1 
   1       0.0342969197      1.0000000000
 P 3 
   1    1450.0319327000     -0.0222847647
   2     343.7504988400     -0.1817959329
   3     110.8252170800     -0.8607412073
 P 3 
   1      41.8224645460     -0.2522537814
   2      17.0880737100     -0.4620379520
   3       7.2613218939     -0.3990010670
 P 1 
   1       2.9458145262      1.0000000000
 P 1 
   1       1.1650209680      1.0000000000
 P 1 
   1       0.4339937839      1.0000000000
 D 3 
   1      27.3603358640      0.0575501019
   2       7.4542765527      0.3023798347
   3       2.4632270217      0.7724212088
 D 1 
   1       0.8249954244      1.0000000000
 D 1 
   1       0.2526297057      1.0000000000
 P 1 
   1       0.1112480000      1.0000000000
 P 1 
   1       0.0363780000      1.0000000000
 F 1 
   1       1.8000000000      1.0000000000
  end;

---------------------------------
AUXILIARY/J BASIS SET INFORMATION
---------------------------------
There are 5 groups of distinct atoms

 Group   1 Type V   : 19s5p5d3f3g contracted to 8s5p5d2f3g pattern {121111111/11111/11111/21/111}
 Group   2 Type S   : 14s5p5d2f1g contracted to 8s4p3d1f1g pattern {71111111/2111/311/2/1}
 Group   3 Type O   : 12s5p4d2f1g contracted to 6s4p3d1f1g pattern {711111/2111/211/2/1}
 Group   4 Type C   : 12s5p4d2f1g contracted to 6s4p3d1f1g pattern {711111/2111/211/2/1}
 Group   5 Type H   : 5s2p1d contracted to 3s1p1d pattern {311/2/1}

Atom   0V    basis set group =>   1
Atom   1S    basis set group =>   2
Atom   2S    basis set group =>   2
Atom   3S    basis set group =>   2
Atom   4S    basis set group =>   2
Atom   5O    basis set group =>   3
Atom   6C    basis set group =>   4
Atom   7C    basis set group =>   4
Atom   8C    basis set group =>   4
Atom   9C    basis set group =>   4
Atom  10S    basis set group =>   2
Atom  11S    basis set group =>   2
Atom  12S    basis set group =>   2
Atom  13S    basis set group =>   2
Atom  14C    basis set group =>   4
Atom  15C    basis set group =>   4
Atom  16C    basis set group =>   4
Atom  17C    basis set group =>   4
Atom  18S    basis set group =>   2
Atom  19S    basis set group =>   2
Atom  20S    basis set group =>   2
Atom  21S    basis set group =>   2
Atom  22C    basis set group =>   4
Atom  23C    basis set group =>   4
Atom  24C    basis set group =>   4
Atom  25H    basis set group =>   5
Atom  26H    basis set group =>   5
Atom  27H    basis set group =>   5
Atom  28H    basis set group =>   5
Atom  29H    basis set group =>   5
Atom  30H    basis set group =>   5
Atom  31C    basis set group =>   4
Atom  32C    basis set group =>   4
Atom  33C    basis set group =>   4
Atom  34H    basis set group =>   5
Atom  35H    basis set group =>   5
Atom  36H    basis set group =>   5
Atom  37H    basis set group =>   5
Atom  38H    basis set group =>   5
Atom  39H    basis set group =>   5

-------------------------------------
AUXILIARY/J BASIS SET IN INPUT FORMAT
-------------------------------------

 # Auxiliary/J basis set for element : H 
 NewAuxJGTO H 
 S 3 
   1      15.6752927000      0.1007184237
   2       3.6063578000      0.3404257499
   3       1.2080016000      0.6491996172
 S 1 
   1       0.4726794000      1.0000000000
 S 1 
   1       0.2018100000      1.0000000000
 P 2 
   1       2.0281365000      0.5596620919
   2       0.5358730000      0.5596620919
 D 1 
   1       2.2165124000      1.0000000000
  end;

 # Auxiliary/J basis set for element : C 
 NewAuxJGTO C 
 S 7 
   1    1861.0916331000      0.0134602335
   2     642.9939764000      0.0299160374
   3     235.1105725000      0.1008649584
   4      90.7028894000      0.2370970548
   5      36.7794552000      0.3924037254
   6      15.6046273000      0.3195862154
   7       6.8907294000      0.0530104441
 S 1 
   1       3.1478850000     -1.0000000000
 S 1 
   1       1.4777287000      1.0000000000
 S 1 
   1       0.7076466000      1.0000000000
 S 1 
   1       0.3430122000      1.0000000000
 S 1 
   1       0.1669453000      1.0000000000
 P 2 
   1      13.5472892000     -0.6769313712
   2       5.4669419000     -0.3779500978
 P 1 
   1       2.1751721000      1.0000000000
 P 1 
   1       0.8582194000      1.0000000000
 P 1 
   1       0.3376720000      1.0000000000
 D 2 
   1       5.9287253000     -0.3533329857
   2       1.9809209000     -0.7456525731
 D 1 
   1       0.8055417000     -1.0000000000
 D 1 
   1       0.3531244000     -1.0000000000
 F 2 
   1       1.6755626000      0.6311076882
   2       0.5997536000      0.4968166032
 G 1 
   1       1.0024600000     -1.0000000000
  end;

 # Auxiliary/J basis set for element : O 
 NewAuxJGTO O 
 S 7 
   1    2876.8216605000      0.0168151159
   2    1004.7443032000      0.0340137548
   3     369.7579954000      0.1194951309
   4     142.9442404000      0.2664627624
   5      57.8366425000      0.4202764046
   6      24.3864983000      0.2765077335
   7      10.6622662000      0.0057008815
 S 1 
   1       4.8070437000     -1.0000000000
 S 1 
   1       2.2210770000      1.0000000000
 S 1 
   1       1.0447795000      1.0000000000
 S 1 
   1       0.4968425000      1.0000000000
 S 1 
   1       0.2371384000      1.0000000000
 P 2 
   1      64.2613382000     -0.2731534179
   2      16.3006076000     -0.8168011598
 P 1 
   1       4.3550542000      1.0000000000
 P 1 
   1       1.2019554000      1.0000000000
 P 1 
   1       0.3354196000      1.0000000000
 D 2 
   1       9.2146611000     -0.4661230638
   2       2.8435251000     -0.6600908911
 D 1 
   1       0.9955759000     -1.0000000000
 D 1 
   1       0.3649441000     -1.0000000000
 F 2 
   1       2.6420115000      0.5931563945
   2       0.7345613000      0.5931563945
 G 1 
   1       1.3931000000     -1.0000000000
  end;

 # Auxiliary/J basis set for element : S 
 NewAuxJGTO S 
 S 7 
   1    7399.0303145000      0.0295137551
   2    2710.1675859000      0.0559686311
   3    1034.3279062000      0.1764696370
   4     410.4645411000      0.3577969368
   5     168.9762502000      0.4299293578
   6      71.9687889000      0.1259148089
   7      31.6172683000     -0.0646025788
 S 1 
   1      14.2796836000      1.0000000000
 S 1 
   1       6.6060948000      1.0000000000
 S 1 
   1       3.1181477000      1.0000000000
 S 1 
   1       1.4954039000     -1.0000000000
 S 1 
   1       0.7254779000      1.0000000000
 S 1 
   1       0.3544216000      1.0000000000
 S 1 
   1       0.1735525000      1.0000000000
 P 2 
   1      12.6998799000      1.4059102813
   2       4.4295784000     -1.2124994202
 P 1 
   1       1.5232889000      1.0000000000
 P 1 
   1       0.5194667000     -1.0000000000
 P 1 
   1       0.1766547000     -1.0000000000
 D 3 
   1      16.8546461000      1.0295742104
   2       5.0810461000     -0.7461553923
   3       1.5102323000      0.8357028005
 D 1 
   1       0.4451331000      1.0000000000
 D 1 
   1       0.1308362000      1.0000000000
 F 2 
   1       1.0809860000      0.5572698934
   2       0.4161474000      0.5572698934
 G 1 
   1       0.6707100000     -1.0000000000
  end;

 # Auxiliary/J basis set for element : V 
 NewAuxJGTO V 
 S 12 
   1   11942.0842430000      0.0459866720
   2    2430.7110193000      0.1744615821
   3     841.0764301000      0.2900402792
   4     494.7508273000      0.1411212903
   5     291.0298903000      0.2660697186
   6     171.1940483000      0.0446365706
   7      59.2366916000     -0.0408204801
   8      34.8451117000      0.1394665381
   9      20.4971240000      0.2164746715
  10      12.0571314000      0.0864266611
  11       7.0924300000     -0.0568501658
  12       4.1720176000     -0.0126212852
 S 1 
   1       2.4541279000      1.0000000000
 S 1 
   1       1.4436046000      1.0000000000
 S 1 
   1       0.8491792000      1.0000000000
 S 1 
   1       0.2938336000      1.0000000000
 S 1 
   1       0.1728433000      1.0000000000
 S 1 
   1       0.1016725000      1.0000000000
 S 1 
   1       0.0598074000      1.0000000000
 P 1 
   1      16.7130979000     -1.0000000000
 P 1 
   1       4.7454037000     -1.0000000000
 P 1 
   1       1.3889998000      1.0000000000
 P 1 
   1       0.4142440000     -1.0000000000
 P 1 
   1       0.1243234000      1.0000000000
 D 1 
   1       7.7143225000      1.0000000000
 D 1 
   1       3.1170731000      1.0000000000
 D 1 
   1       1.2767950000     -1.0000000000
 D 1 
   1       0.5273386000      1.0000000000
 D 1 
   1       0.2184050000      1.0000000000
 F 2 
   1       3.1309344000     -1.0825667766
   2       1.0419780000      0.1809223232
 F 1 
   1       0.3559044000      1.0000000000
 G 1 
   1       8.7130110000      1.0000000000
 G 1 
   1       2.7493872000      1.0000000000
 G 1 
   1       0.8775089000      1.0000000000
  end;



           ************************************************************
           *        Program running with 4 parallel MPI-processes     *
           *              working on a common directory               *
           ************************************************************
------------------------------------------------------------------------------
                           ORCA GTO INTEGRAL CALCULATION
                           -- RI-GTO INTEGRALS CHOSEN --
------------------------------------------------------------------------------
------------------------------------------------------------------------------
                   ___                                                        
                  /   \      - P O W E R E D   B Y -                         
                 /     \                                                     
                 |  |  |   _    _      __       _____    __    __             
                 |  |  |  | |  | |    /  \     |  _  \  |  |  /  |          
                  \  \/   | |  | |   /    \    | | | |  |  | /  /          
                 / \  \   | |__| |  /  /\  \   | |_| |  |  |/  /          
                |  |  |   |  __  | /  /__\  \  |    /   |      \           
                |  |  |   | |  | | |   __   |  |    \   |  |\   \          
                \     /   | |  | | |  |  |  |  | |\  \  |  | \   \       
                 \___/    |_|  |_| |__|  |__|  |_| \__\ |__|  \__/        
                                                                              
                      - O R C A' S   B I G   F R I E N D -                    
                                      &                                       
                       - I N T E G R A L  F E E D E R -                       
                                                                              
 v1 FN, 2020, v2 2021                                                         
------------------------------------------------------------------------------


Reading SHARK input file input_0.SHARKINP.tmp ... ok
----------------------
SHARK INTEGRAL PACKAGE
----------------------

Number of atoms                             ...     40
Number of basis functions                   ...    681
Number of shells                            ...    331
Maximum angular momentum                    ...      3
Integral batch strategy                     ... SHARK/LIBINT Hybrid
RI-J (if used) integral strategy            ... SPLIT-RIJ (Revised 2003 algorithm where possible)
Printlevel                                  ...      1
Contraction scheme used                     ... SEGMENTED contraction
Coulomb Range Separation                    ... NOT USED
Exchange Range Separation                   ... NOT USED
Finite Nucleus Model                        ... NOT USED
Auxiliary Coulomb fitting basis             ... AVAILABLE
   # of basis functions in Aux-J            ...   1568
   # of shells in Aux-J                     ...    512
   Maximum angular momentum in Aux-J        ...      4
Auxiliary J/K fitting basis                 ... NOT available
Auxiliary Correlation fitting basis         ... NOT available
Auxiliary 'external' fitting basis          ... NOT available
Integral threshold                          ...     1.000000e-10
Primitive cut-off                           ...     1.000000e-11
Primitive pair pre-selection threshold      ...     1.000000e-11

Calculating pre-screening integrals         ... done (  0.2 sec) Dimension = 331
Organizing shell pair data                  ... done (  0.1 sec)
Shell pair information
Total number of shell pairs                 ...     54946
Shell pairs after pre-screening             ...     22689
Total number of primitive shell pairs       ...    221635
Primitive shell pairs kept                  ...     55414
          la=0 lb=0:   6413 shell pairs
          la=1 lb=0:   9096 shell pairs
          la=1 lb=1:   3197 shell pairs
          la=2 lb=0:   2128 shell pairs
          la=2 lb=1:   1538 shell pairs
          la=2 lb=2:    194 shell pairs
          la=3 lb=0:     55 shell pairs
          la=3 lb=1:     55 shell pairs
          la=3 lb=2:     12 shell pairs
          la=3 lb=3:      1 shell pairs

Calculating one electron integrals          ... done (  0.1 sec)
Calculating RI/J V-Matrix + Cholesky decomp.... done (  0.1 sec)
Calculating Nuclear repulsion               ... done (  0.0 sec) ENN=   5063.769212096342 Eh

SHARK setup successfully completed in   0.9 seconds

Maximum memory used throughout the entire GTOINT-calculation: 46.5 MB


           ************************************************************
           *        Program running with 4 parallel MPI-processes     *
           *              working on a common directory               *
           ************************************************************
-------------------------------------------------------------------------------
                                 ORCA SCF
-------------------------------------------------------------------------------

------------
SCF SETTINGS
------------
Hamiltonian:
 Density Functional     Method          .... DFT(GTOs)
 Exchange Functional    Exchange        .... B88
   X-Alpha parameter    XAlpha          ....  0.666667
   Becke's b parameter  XBeta           ....  0.004200
 Correlation Functional Correlation     .... LYP
 LDA part of GGA corr.  LDAOpt          .... VWN-5
 Gradients option       PostSCFGGA      .... off
 Hybrid DFT is turned on
   Fraction HF Exchange ScalHFX         ....  0.200000
   Scaling of DF-GGA-X  ScalDFX         ....  0.720000
   Scaling of DF-GGA-C  ScalDFC         ....  0.810000
   Scaling of DF-LDA-C  ScalLDAC        ....  1.000000
   Perturbative correction              ....  0.000000
   Density functional embedding theory  .... OFF
   NL short-range parameter             ....  4.800000
 RI-approximation to the Coulomb term is turned on
   Number of AuxJ basis functions       .... 1568
   RIJ-COSX (HFX calculated with COS-X)).... on


General Settings:
 Integral files         IntName         .... input_0
 Hartree-Fock type      HFTyp           .... UHF
 Total Charge           Charge          ....   -2
 Multiplicity           Mult            ....    2
 Number of Electrons    NEL             ....  321
 Basis Dimension        Dim             ....  681
 Nuclear Repulsion      ENuc            ....   5063.7692120963 Eh

Convergence Acceleration:
 DIIS                   CNVDIIS         .... on
   Start iteration      DIISMaxIt       ....    12
   Startup error        DIISStart       ....  0.200000
   # of expansion vecs  DIISMaxEq       ....     5
   Bias factor          DIISBfac        ....   1.050
   Max. coefficient     DIISMaxC        ....  10.000
 Trust-Rad. Augm. Hess. CNVTRAH         .... auto
   Auto Start mean grad. ratio tolernc. ....  1.125000
   Auto Start start iteration           ....     1
   Auto Start num. interpolation iter.  ....    10
   Max. Number of Micro iterations      ....    16
   Max. Number of Macro iterations      .... Maxiter - #DIIS iter
   Number of Davidson start vectors     ....     2
   Converg. threshold I  (grad. norm)   ....   5.000e-05
   Converg. threshold II (energy diff.) ....   1.000e-06
   Grad. Scal. Fac. for Micro threshold ....   0.100
   Minimum threshold for Micro iter.    ....   0.010
   NR start threshold (gradient norm)   ....   0.001
   Initial trust radius                 ....   0.400
   Minimum AH scaling param. (alpha)    ....   1.000
   Maximum AH scaling param. (alpha)    .... 1000.000
   Orbital update algorithm             .... Taylor
   White noise on init. David. guess    .... on
   Maximum white noise                  ....   0.010
   Quad. conv. algorithm                .... NR
 SOSCF                  CNVSOSCF        .... off
 Level Shifting         CNVShift        .... on
   Level shift para.    LevelShift      ....    0.2500
   Turn off err/grad.   ShiftErr        ....    0.0010
 Zerner damping         CNVZerner       .... off
 Static damping         CNVDamp         .... on
   Fraction old density DampFac         ....    0.7000
   Max. Damping (<1)    DampMax         ....    0.9800
   Min. Damping (>=0)   DampMin         ....    0.0000
   Turn off err/grad.   DampErr         ....    0.1000
 Fernandez-Rico         CNVRico         .... off

SCF Procedure:
 Maximum # iterations   MaxIter         ....   125
 SCF integral mode      SCFMode         .... Direct
   Integral package                     .... SHARK and LIBINT hybrid scheme
 Reset frequency        DirectResetFreq ....    20
 Integral Threshold     Thresh          ....  1.000e-10 Eh
 Primitive CutOff       TCut            ....  1.000e-11 Eh

Convergence Tolerance:
 Convergence Check Mode ConvCheckMode   .... Total+1el-Energy
 Convergence forced     ConvForced      .... 0
 Energy Change          TolE            ....  1.000e-06 Eh
 1-El. energy change                    ....  1.000e-03 Eh
 DIIS Error             TolErr          ....  1.000e-06


Diagonalization of the overlap matrix:
Smallest eigenvalue                        ... 8.903e-05
Time for diagonalization                   ...    0.184 sec
Threshold for overlap eigenvalues          ... 1.000e-08
Number of eigenvalues below threshold      ... 0
Time for construction of square roots      ...    0.158 sec
Total time needed                          ...    0.345 sec

---------------------
INITIAL GUESS: MOREAD
---------------------
Guess MOs are being read from file: start.gbw
Input geometry compatible with but different from current geometry
Input basis set matches current basis set (good)
MOs were renormalized
MOs were reorthogonalized (Cholesky)
                      ------------------
                      INITIAL GUESS DONE (   0.7 sec)
                      ------------------
-------------------
DFT GRID GENERATION
-------------------

General Integration Accuracy     IntAcc      ... 4.388
Radial Grid Type                 RadialGrid  ... OptM3 with GC (2021)
Angular Grid (max. ang.)         AngularGrid ... 4 (Lebedev-302)
Angular grid pruning method      GridPruning ... 4 (adaptive)
Weight generation scheme         WeightScheme... Becke
Basis function cutoff            BFCut       ... 1.0000e-10
Integration weight cutoff        WCut        ... 1.0000e-14
Angular grids for H and He will be reduced by one unit
Partially contracted basis set               ... off
Rotationally invariant grid construction     ... off

Total number of grid points                  ...   237181
Total number of batches                      ...     3727
Average number of points per batch           ...       63
Average number of grid points per atom       ...     5930
Time for grid setup =    2.167 sec

--------------------
COSX GRID GENERATION
--------------------

GRIDX 1
-------
General Integration Accuracy     IntAcc      ... 3.816
Radial Grid Type                 RadialGrid  ... OptM3 with GC (2021)
Angular Grid (max. ang.)         AngularGrid ... 1 (Lebedev-50)
Angular grid pruning method      GridPruning ... 4 (adaptive)
Weight generation scheme         WeightScheme... Becke
Basis function cutoff            BFCut       ... 1.0000e-10
Integration weight cutoff        WCut        ... 1.0000e-14
Angular grids for H and He will be reduced by one unit
Partially contracted basis set               ... on
Rotationally invariant grid construction     ... off

Total number of grid points                  ...    29169
Total number of batches                      ...      480
Average number of points per batch           ...       60
Average number of grid points per atom       ...      729
UseSFitting                                  ... on

GRIDX 2
-------
General Integration Accuracy     IntAcc      ... 4.020
Radial Grid Type                 RadialGrid  ... OptM3 with GC (2021)
Angular Grid (max. ang.)         AngularGrid ... 2 (Lebedev-110)
Angular grid pruning method      GridPruning ... 4 (adaptive)
Weight generation scheme         WeightScheme... Becke
Basis function cutoff            BFCut       ... 1.0000e-10
Integration weight cutoff        WCut        ... 1.0000e-14
Angular grids for H and He will be reduced by one unit
Partially contracted basis set               ... on
Rotationally invariant grid construction     ... off

Total number of grid points                  ...    64021
Total number of batches                      ...     1019
Average number of points per batch           ...       62
Average number of grid points per atom       ...     1601
UseSFitting                                  ... on

GRIDX 3
-------
General Integration Accuracy     IntAcc      ... 4.338
Radial Grid Type                 RadialGrid  ... OptM3 with GC (2021)
Angular Grid (max. ang.)         AngularGrid ... 3 (Lebedev-194)
Angular grid pruning method      GridPruning ... 4 (adaptive)
Weight generation scheme         WeightScheme... Becke
Basis function cutoff            BFCut       ... 1.0000e-10
Integration weight cutoff        WCut        ... 1.0000e-14
Angular grids for H and He will be reduced by one unit
Partially contracted basis set               ... on
Rotationally invariant grid construction     ... off

Total number of grid points                  ...   147157
Total number of batches                      ...     2323
Average number of points per batch           ...       63
Average number of grid points per atom       ...     3679
UseSFitting                                  ... on

Time for X-Grid setup             =    2.641 sec

--------------
SCF ITERATIONS
--------------
ITER       Energy         Delta-E        Max-DP      RMS-DP      [F,P]     Damp
               ***  Starting incremental Fock matrix formation  ***
  0  -6337.7055552870   0.000000000000 0.00201800  0.00002645  0.0017597 0.7000
  1  -6337.7057197930  -0.000164505938 0.00185617  0.00002449  0.0013026 0.7000
                               ***Turning on DIIS***
  2  -6337.7058464791  -0.000126686163 0.00477510  0.00006534  0.0009210 0.0000
               *** Restarting incremental Fock matrix formation ***
                                   *** Resetting DIIS ***
  3  -6337.7061638991  -0.000317420006 0.00144716  0.00001101  0.0002118 0.0000
  4  -6337.7061645983  -0.000000699183 0.00110183  0.00000750  0.0002773 0.0000
  5  -6337.7061655956  -0.000000997272 0.00019297  0.00000209  0.0005523 0.0000
  6  -6337.7061676245  -0.000002028899 0.00013320  0.00000147  0.0003639 0.0000
  7  -6337.7061683830  -0.000000758508 0.00008048  0.00000075  0.0000858 0.0000
  8  -6337.7061685400  -0.000000157057 0.00005915  0.00000037  0.0000239 0.0000
                 **** Energy Check signals convergence ****

               *****************************************************
               *                     SUCCESS                       *
               *           SCF CONVERGED AFTER   9 CYCLES          *
               *****************************************************

Old exchange energy                            =    -85.929384925 Eh
New exchange energy                            =    -85.929385434 Eh
Exchange energy change after final integration =     -0.000000509 Eh
Total energy after final integration           =  -6337.706169063 Eh
Final COS-X integration done in                =    42.474 sec

----------------
TOTAL SCF ENERGY
----------------

Total Energy       :        -6337.70616906 Eh         -172457.75244 eV

Components:
Nuclear Repulsion  :         5063.76921210 Eh          137792.16548 eV
Electronic Energy  :       -11401.47538116 Eh         -310249.91792 eV
One Electron Energy:       -18897.91245839 Eh         -514238.34136 eV
Two Electron Energy:         7496.43707723 Eh          203988.42344 eV
Max COSX asymmetry :            0.00000163 Eh               0.00004 eV

Virial components:
Potential Energy   :       -12658.97939390 Eh         -344468.34174 eV
Kinetic Energy     :         6321.27322483 Eh          172010.58930 eV
Virial Ratio       :            2.00259963


DFT components:
N(Alpha)           :      161.000043166381 electrons
N(Beta)            :      160.000041140985 electrons
N(Total)           :      321.000084307366 electrons
E(X)               :     -341.467141993171 Eh       
E(C)               :      -14.721874207277 Eh       
E(XC)              :     -356.189016200448 Eh       
DFET-embed. en.    :        0.000000000000 Eh       

---------------
SCF CONVERGENCE
---------------

  Last Energy change         ...   -1.4501e-08  Tolerance :   1.0000e-06
  Last MAX-Density change    ...    0.0000e+00  Tolerance :   1.0000e-05
  Last RMS-Density change    ...    0.0000e+00  Tolerance :   1.0000e-06
  Last DIIS Error            ...    1.1463e-05  Tolerance :   1.0000e-06

             **** THE GBW FILE WAS UPDATED (input_0.gbw) ****
             **** DENSITY input_0.scfp WAS UPDATED ****
             **** ENERGY FILE WAS UPDATED (input_0.en.tmp) ****
----------------------
UHF SPIN CONTAMINATION
----------------------

Warning: in a DFT calculation there is little theoretical justification to 
         calculate <S**2> as in Hartree-Fock theory. We will do it anyways
         but you should keep in mind that the values have only limited relevance

Expectation value of <S**2>     :     0.765549
Ideal value S*(S+1) for S=0.5   :     0.750000
Deviation                       :     0.015549

             **** THE GBW FILE WAS UPDATED (input_0.gbw) ****
             **** DENSITY input_0.scfp WAS UPDATED ****
----------------
ORBITAL ENERGIES
----------------
                 SPIN UP ORBITALS
  NO   OCC          E(Eh)            E(eV) 
   0   1.0000    -196.673978     -5351.7710 
   1   1.0000     -88.733159     -2414.5520 
   2   1.0000     -88.732877     -2414.5443 
   3   1.0000     -88.732755     -2414.5410 
   4   1.0000     -88.732389     -2414.5311 
   5   1.0000     -88.730806     -2414.4880 
   6   1.0000     -88.730675     -2414.4844 
   7   1.0000     -88.730549     -2414.4810 
   8   1.0000     -88.730071     -2414.4680 
   9   1.0000     -88.639693     -2412.0087 
  10   1.0000     -88.639386     -2412.0003 
  11   1.0000     -88.639351     -2411.9994 
  12   1.0000     -88.639261     -2411.9969 
  13   1.0000     -22.049437      -599.9957 
  14   1.0000     -18.889549      -514.0108 
  15   1.0000     -18.555889      -504.9314 
  16   1.0000     -18.550704      -504.7903 
  17   1.0000     -18.550606      -504.7877 
  18   1.0000     -10.076185      -274.1869 
  19   1.0000     -10.076042      -274.1830 
  20   1.0000     -10.063620      -273.8450 
  21   1.0000     -10.062755      -273.8215 
  22   1.0000     -10.062480      -273.8140 
  23   1.0000     -10.061860      -273.7971 
  24   1.0000     -10.051876      -273.5254 
  25   1.0000     -10.050028      -273.4752 
  26   1.0000     -10.048117      -273.4232 
  27   1.0000     -10.048100      -273.4227 
  28   1.0000     -10.018590      -272.6197 
  29   1.0000     -10.018308      -272.6120 
  30   1.0000     -10.017499      -272.5900 
  31   1.0000     -10.016948      -272.5750 
  32   1.0000      -7.786650      -211.8855 
  33   1.0000      -7.786372      -211.8780 
  34   1.0000      -7.786184      -211.8728 
  35   1.0000      -7.785901      -211.8651 
  36   1.0000      -7.784428      -211.8251 
  37   1.0000      -7.783907      -211.8109 
  38   1.0000      -7.783746      -211.8065 
  39   1.0000      -7.783457      -211.7986 
  40   1.0000      -7.693990      -209.3641 
  41   1.0000      -7.693625      -209.3542 
  42   1.0000      -7.693583      -209.3530 
  43   1.0000      -7.693337      -209.3463 
  44   1.0000      -5.751632      -156.5099 
  45   1.0000      -5.751358      -156.5024 
  46   1.0000      -5.751167      -156.4972 
  47   1.0000      -5.750877      -156.4893 
  48   1.0000      -5.749328      -156.4472 
  49   1.0000      -5.748863      -156.4345 
  50   1.0000      -5.748675      -156.4294 
  51   1.0000      -5.748358      -156.4208 
  52   1.0000      -5.748206      -156.4166 
  53   1.0000      -5.747902      -156.4084 
  54   1.0000      -5.747794      -156.4054 
  55   1.0000      -5.747469      -156.3966 
  56   1.0000      -5.744861      -156.3256 
  57   1.0000      -5.744424      -156.3137 
  58   1.0000      -5.744272      -156.3096 
  59   1.0000      -5.743967      -156.3013 
  60   1.0000      -5.741470      -156.2333 
  61   1.0000      -5.741184      -156.2256 
  62   1.0000      -5.740976      -156.2199 
  63   1.0000      -5.740704      -156.2125 
  64   1.0000      -5.740307      -156.2017 
  65   1.0000      -5.739722      -156.1858 
  66   1.0000      -5.739590      -156.1822 
  67   1.0000      -5.739310      -156.1746 
  68   1.0000      -5.659320      -153.9979 
  69   1.0000      -5.658953      -153.9879 
  70   1.0000      -5.658947      -153.9878 
  71   1.0000      -5.658733      -153.9819 
  72   1.0000      -5.652641      -153.8162 
  73   1.0000      -5.652299      -153.8069 
  74   1.0000      -5.652228      -153.8049 
  75   1.0000      -5.651951      -153.7974 
  76   1.0000      -5.651319      -153.7802 
  77   1.0000      -5.650943      -153.7700 
  78   1.0000      -5.650863      -153.7678 
  79   1.0000      -5.650624      -153.7613 
  80   1.0000      -2.443161       -66.4818 
  81   1.0000      -1.484574       -40.3973 
  82   1.0000      -1.472810       -40.0772 
  83   1.0000      -1.471971       -40.0544 
  84   1.0000      -0.709709       -19.3122 
  85   1.0000      -0.709536       -19.3075 
  86   1.0000      -0.686884       -18.6911 
  87   1.0000      -0.686021       -18.6676 
  88   1.0000      -0.649233       -17.6665 
  89   1.0000      -0.630659       -17.1611 
  90   1.0000      -0.630328       -17.1521 
  91   1.0000      -0.617790       -16.8109 
  92   1.0000      -0.616589       -16.7782 
  93   1.0000      -0.575904       -15.6711 
  94   1.0000      -0.575141       -15.6504 
  95   1.0000      -0.572899       -15.5894 
  96   1.0000      -0.571931       -15.5630 
  97   1.0000      -0.495915       -13.4945 
  98   1.0000      -0.495180       -13.4745 
  99   1.0000      -0.494964       -13.4686 
 100   1.0000      -0.493567       -13.4306 
 101   1.0000      -0.479265       -13.0415 
 102   1.0000      -0.476308       -12.9610 
 103   1.0000      -0.446551       -12.1513 
 104   1.0000      -0.444030       -12.0827 
 105   1.0000      -0.415763       -11.3135 
 106   1.0000      -0.410531       -11.1711 
 107   1.0000      -0.355524        -9.6743 
 108   1.0000      -0.355420        -9.6715 
 109   1.0000      -0.326563        -8.8862 
 110   1.0000      -0.326234        -8.8773 
 111   1.0000      -0.319575        -8.6961 
 112   1.0000      -0.314844        -8.5673 
 113   1.0000      -0.303740        -8.2652 
 114   1.0000      -0.302895        -8.2422 
 115   1.0000      -0.292635        -7.9630 
 116   1.0000      -0.292080        -7.9479 
 117   1.0000      -0.257829        -7.0159 
 118   1.0000      -0.257137        -6.9970 
 119   1.0000      -0.255882        -6.9629 
 120   1.0000      -0.254708        -6.9310 
 121   1.0000      -0.234940        -6.3930 
 122   1.0000      -0.234129        -6.3710 
 123   1.0000      -0.229873        -6.2552 
 124   1.0000      -0.228554        -6.2193 
 125   1.0000      -0.219806        -5.9812 
 126   1.0000      -0.217839        -5.9277 
 127   1.0000      -0.214029        -5.8240 
 128   1.0000      -0.211679        -5.7601 
 129   1.0000      -0.192791        -5.2461 
 130   1.0000      -0.187394        -5.0993 
 131   1.0000      -0.186049        -5.0627 
 132   1.0000      -0.184527        -5.0212 
 133   1.0000      -0.179246        -4.8775 
 134   1.0000      -0.158716        -4.3189 
 135   1.0000      -0.151632        -4.1261 
 136   1.0000      -0.147139        -4.0038 
 137   1.0000      -0.134879        -3.6702 
 138   1.0000      -0.133821        -3.6415 
 139   1.0000      -0.133612        -3.6358 
 140   1.0000      -0.124606        -3.3907 
 141   1.0000      -0.121107        -3.2955 
 142   1.0000      -0.113175        -3.0796 
 143   1.0000      -0.109404        -2.9770 
 144   1.0000      -0.100099        -2.7238 
 145   1.0000      -0.098427        -2.6783 
 146   1.0000      -0.097143        -2.6434 
 147   1.0000      -0.094399        -2.5687 
 148   1.0000      -0.074337        -2.0228 
 149   1.0000      -0.067439        -1.8351 
 150   1.0000      -0.066894        -1.8203 
 151   1.0000      -0.051957        -1.4138 
 152   1.0000      -0.045278        -1.2321 
 153   1.0000      -0.036745        -0.9999 
 154   1.0000      -0.036511        -0.9935 
 155   1.0000      -0.030213        -0.8221 
 156   1.0000      -0.024465        -0.6657 
 157   1.0000      -0.018440        -0.5018 
 158   1.0000      -0.014617        -0.3977 
 159   1.0000       0.020394         0.5549 
 160   1.0000       0.041239         1.1222 
 161   0.0000       0.136338         3.7100 
 162   0.0000       0.137280         3.7356 
 163   0.0000       0.161651         4.3987 
 164   0.0000       0.162223         4.4143 
 165   0.0000       0.171189         4.6583 
 166   0.0000       0.172335         4.6895 
 167   0.0000       0.174877         4.7587 
 168   0.0000       0.175069         4.7639 
 169   0.0000       0.175584         4.7779 
 170   0.0000       0.177040         4.8175 
 171   0.0000       0.178512         4.8576 
 172   0.0000       0.189763         5.1637 
 173   0.0000       0.191096         5.2000 
 174   0.0000       0.197653         5.3784 
 175   0.0000       0.199163         5.4195 
 176   0.0000       0.203661         5.5419 
 177   0.0000       0.204167         5.5557 
 178   0.0000       0.209485         5.7004 
 179   0.0000       0.212656         5.7867 
 180   0.0000       0.214840         5.8461 
 181   0.0000       0.215585         5.8664 
 182   0.0000       0.216948         5.9035 
 183   0.0000       0.218787         5.9535 
 184   0.0000       0.227544         6.1918 
 185   0.0000       0.230413         6.2698 
 186   0.0000       0.231125         6.2892 
 187   0.0000       0.236354         6.4315 
 188   0.0000       0.237787         6.4705 
 189   0.0000       0.240562         6.5460 
 190   0.0000       0.246453         6.7063 
 191   0.0000       0.247487         6.7345 
 192   0.0000       0.248495         6.7619 
 193   0.0000       0.259801         7.0695 
 194   0.0000       0.261496         7.1157 
 195   0.0000       0.267676         7.2838 
 196   0.0000       0.271379         7.3846 
 197   0.0000       0.273574         7.4443 
 198   0.0000       0.273925         7.4539 
 199   0.0000       0.276698         7.5293 
 200   0.0000       0.288592         7.8530 
 201   0.0000       0.289776         7.8852 
 202   0.0000       0.300879         8.1873 
 203   0.0000       0.307982         8.3806 
 204   0.0000       0.310391         8.4462 
 205   0.0000       0.324479         8.8295 
 206   0.0000       0.332892         9.0584 
 207   0.0000       0.333086         9.0637 
 208   0.0000       0.335709         9.1351 
 209   0.0000       0.342779         9.3275 
 210   0.0000       0.349442         9.5088 
 211   0.0000       0.350034         9.5249 
 212   0.0000       0.352216         9.5843 
 213   0.0000       0.357204         9.7200 
 214   0.0000       0.360102         9.7989 
 215   0.0000       0.370319        10.0769 
 216   0.0000       0.373748        10.1702 
 217   0.0000       0.376281        10.2391 
 218   0.0000       0.383073        10.4239 
 219   0.0000       0.384287        10.4570 
 220   0.0000       0.389858        10.6086 
 221   0.0000       0.392068        10.6687 
 222   0.0000       0.393639        10.7115 
 223   0.0000       0.399815        10.8795 
 224   0.0000       0.402419        10.9504 
 225   0.0000       0.403500        10.9798 
 226   0.0000       0.405308        11.0290 
 227   0.0000       0.409987        11.1563 
 228   0.0000       0.413170        11.2429 
 229   0.0000       0.421456        11.4684 
 230   0.0000       0.422509        11.4971 
 231   0.0000       0.424036        11.5386 
 232   0.0000       0.428310        11.6549 
 233   0.0000       0.433523        11.7968 
 234   0.0000       0.435511        11.8508 
 235   0.0000       0.441152        12.0044 
 236   0.0000       0.448329        12.1996 
 237   0.0000       0.453186        12.3318 
 238   0.0000       0.455468        12.3939 
 239   0.0000       0.466055        12.6820 
 240   0.0000       0.466541        12.6952 
 241   0.0000       0.472569        12.8593 
 242   0.0000       0.473707        12.8902 
 243   0.0000       0.475017        12.9259 
 244   0.0000       0.478550        13.0220 
 245   0.0000       0.479074        13.0363 
 246   0.0000       0.479640        13.0517 
 247   0.0000       0.484839        13.1931 
 248   0.0000       0.487943        13.2776 
 249   0.0000       0.492485        13.4012 
 250   0.0000       0.494446        13.4546 
 251   0.0000       0.502414        13.6714 
 252   0.0000       0.504235        13.7209 
 253   0.0000       0.507812        13.8183 
 254   0.0000       0.509876        13.8744 
 255   0.0000       0.515668        14.0320 
 256   0.0000       0.516127        14.0445 
 257   0.0000       0.518451        14.1078 
 258   0.0000       0.523650        14.2492 
 259   0.0000       0.524836        14.2815 
 260   0.0000       0.525473        14.2988 
 261   0.0000       0.526148        14.3172 
 262   0.0000       0.527139        14.3442 
 263   0.0000       0.528019        14.3681 
 264   0.0000       0.530987        14.4489 
 265   0.0000       0.532197        14.4818 
 266   0.0000       0.536672        14.6036 
 267   0.0000       0.544103        14.8058 
 268   0.0000       0.547072        14.8866 
 269   0.0000       0.551018        14.9940 
 270   0.0000       0.552643        15.0382 
 271   0.0000       0.555346        15.1117 
 272   0.0000       0.560753        15.2589 
 273   0.0000       0.565820        15.3967 
 274   0.0000       0.571463        15.5503 
 275   0.0000       0.572341        15.5742 
 276   0.0000       0.573925        15.6173 
 277   0.0000       0.577258        15.7080 
 278   0.0000       0.580106        15.7855 
 279   0.0000       0.582197        15.8424 
 280   0.0000       0.583371        15.8743 
 281   0.0000       0.587377        15.9833 
 282   0.0000       0.595300        16.1989 
 283   0.0000       0.595944        16.2165 
 284   0.0000       0.605811        16.4850 
 285   0.0000       0.606356        16.4998 
 286   0.0000       0.607680        16.5358 
 287   0.0000       0.614204        16.7133 
 288   0.0000       0.616750        16.7826 
 289   0.0000       0.617450        16.8017 
 290   0.0000       0.619986        16.8707 
 291   0.0000       0.624184        16.9849 
 292   0.0000       0.631392        17.1810 
 293   0.0000       0.632633        17.2148 
 294   0.0000       0.638619        17.3777 
 295   0.0000       0.638685        17.3795 
 296   0.0000       0.641664        17.4606 
 297   0.0000       0.644978        17.5508 
 298   0.0000       0.656710        17.8700 
 299   0.0000       0.659411        17.9435 
 300   0.0000       0.668333        18.1863 
 301   0.0000       0.678098        18.4520 
 302   0.0000       0.685750        18.6602 
 303   0.0000       0.700454        19.0603 
 304   0.0000       0.712948        19.4003 
 305   0.0000       0.715014        19.4565 
 306   0.0000       0.716846        19.5064 
 307   0.0000       0.732852        19.9419 
 308   0.0000       0.735379        20.0107 
 309   0.0000       0.743586        20.2340 
 310   0.0000       0.748813        20.3762 
 311   0.0000       0.763992        20.7893 
 312   0.0000       0.764523        20.8037 
 313   0.0000       0.767592        20.8872 
 314   0.0000       0.769631        20.9427 
 315   0.0000       0.783959        21.3326 
 316   0.0000       0.784693        21.3526 
 317   0.0000       0.795324        21.6419 
 318   0.0000       0.799439        21.7538 
 319   0.0000       0.812511        22.1095 
 320   0.0000       0.819280        22.2937 
 321   0.0000       0.821795        22.3622 
 322   0.0000       0.825705        22.4686 
 323   0.0000       0.829242        22.5648 
 324   0.0000       0.844824        22.9888 
 325   0.0000       0.848601        23.0916 
 326   0.0000       0.856217        23.2989 
 327   0.0000       0.862956        23.4822 
 328   0.0000       0.867823        23.6147 
 329   0.0000       0.871062        23.7028 
 330   0.0000       0.873115        23.7587 
 331   0.0000       0.875215        23.8158 
 332   0.0000       0.876271        23.8445 
 333   0.0000       0.878450        23.9038 
 334   0.0000       0.886921        24.1344 
 335   0.0000       0.896605        24.3979 
 336   0.0000       0.899967        24.4894 
 337   0.0000       0.903121        24.5752 
 338   0.0000       0.914750        24.8916 
 339   0.0000       0.918003        24.9801 
 340   0.0000       0.927259        25.2320 
 341   0.0000       0.936116        25.4730 
 342   0.0000       0.938779        25.5455 
 343   0.0000       0.940131        25.5823 
 344   0.0000       0.943659        25.6783 
 345   0.0000       0.945199        25.7202 
 346   0.0000       0.949919        25.8486 
 347   0.0000       0.952640        25.9226 
 348   0.0000       0.963413        26.2158 
 349   0.0000       0.968929        26.3659 
 350   0.0000       0.977158        26.5898 
 351   0.0000       0.980172        26.6718 
 352   0.0000       0.990082        26.9415 
 353   0.0000       1.008827        27.4516 
 354   0.0000       1.010595        27.4997 
 355   0.0000       1.013671        27.5834 
 356   0.0000       1.015879        27.6435 
 357   0.0000       1.016654        27.6646 
 358   0.0000       1.018516        27.7152 
 359   0.0000       1.021772        27.8038 
 360   0.0000       1.034720        28.1562 
 361   0.0000       1.036189        28.1961 
 362   0.0000       1.040707        28.3191 
 363   0.0000       1.050654        28.5897 
 364   0.0000       1.060462        28.8566 
 365   0.0000       1.065290        28.9880 
 366   0.0000       1.067407        29.0456 
 367   0.0000       1.069907        29.1136 
 368   0.0000       1.074046        29.2263 
 369   0.0000       1.080584        29.4042 
 370   0.0000       1.087023        29.5794 
 371   0.0000       1.095457        29.8089 
 372   0.0000       1.097130        29.8544 
 373   0.0000       1.102370        29.9970 
 374   0.0000       1.105998        30.0957 
 375   0.0000       1.109654        30.1952 
 376   0.0000       1.113983        30.3130 
 377   0.0000       1.119929        30.4748 
 378   0.0000       1.134281        30.8653 
 379   0.0000       1.142816        31.0976 
 380   0.0000       1.145878        31.1809 
 381   0.0000       1.159156        31.5422 
 382   0.0000       1.162855        31.6429 
 383   0.0000       1.163596        31.6631 
 384   0.0000       1.166643        31.7460 
 385   0.0000       1.199550        32.6414 
 386   0.0000       1.205228        32.7959 
 387   0.0000       1.236584        33.6492 
 388   0.0000       1.239001        33.7149 
 389   0.0000       1.240603        33.7585 
 390   0.0000       1.243873        33.8475 
 391   0.0000       1.250818        34.0365 
 392   0.0000       1.276233        34.7281 
 393   0.0000       1.284045        34.9406 
 394   0.0000       1.298414        35.3317 
 395   0.0000       1.307748        35.5856 
 396   0.0000       1.308081        35.5947 
 397   0.0000       1.314855        35.7790 
 398   0.0000       1.320195        35.9243 
 399   0.0000       1.326216        36.0882 
 400   0.0000       1.336076        36.3565 
 401   0.0000       1.353928        36.8423 
 402   0.0000       1.360762        37.0282 
 403   0.0000       1.394849        37.9558 
 404   0.0000       1.400066        38.0977 
 405   0.0000       1.415283        38.5118 
 406   0.0000       1.426772        38.8244 
 407   0.0000       1.426982        38.8302 
 408   0.0000       1.430010        38.9126 
 409   0.0000       1.430069        38.9142 
 410   0.0000       1.442203        39.2443 
 411   0.0000       1.442944        39.2645 
 412   0.0000       1.449096        39.4319 
 413   0.0000       1.487277        40.4709 
 414   0.0000       1.487674        40.4817 
 415   0.0000       1.498031        40.7635 
 416   0.0000       1.500853        40.8403 
 417   0.0000       1.501980        40.8709 
 418   0.0000       1.508105        41.0376 
 419   0.0000       1.510485        41.1024 
 420   0.0000       1.528373        41.5891 
 421   0.0000       1.529308        41.6146 
 422   0.0000       1.548511        42.1371 
 423   0.0000       1.551339        42.2141 
 424   0.0000       1.552188        42.2372 
 425   0.0000       1.582486        43.0616 
 426   0.0000       1.582921        43.0735 
 427   0.0000       1.584944        43.1285 
 428   0.0000       1.585644        43.1476 
 429   0.0000       1.586787        43.1787 
 430   0.0000       1.631687        44.4005 
 431   0.0000       1.632859        44.4324 
 432   0.0000       1.637656        44.5629 
 433   0.0000       1.639592        44.6156 
 434   0.0000       1.645836        44.7855 
 435   0.0000       1.652560        44.9684 
 436   0.0000       1.652776        44.9743 
 437   0.0000       1.653335        44.9895 
 438   0.0000       1.659441        45.1557 
 439   0.0000       1.664441        45.2917 
 440   0.0000       1.674882        45.5758 
 441   0.0000       1.678886        45.6848 
 442   0.0000       1.686292        45.8864 
 443   0.0000       1.690711        46.0066 
 444   0.0000       1.698010        46.2052 
 445   0.0000       1.701396        46.2974 
 446   0.0000       1.707619        46.4667 
 447   0.0000       1.713572        46.6287 
 448   0.0000       1.715959        46.6936 
 449   0.0000       1.730057        47.0773 
 450   0.0000       1.737139        47.2700 
 451   0.0000       1.737506        47.2799 
 452   0.0000       1.742351        47.4118 
 453   0.0000       1.745723        47.5035 
 454   0.0000       1.749409        47.6038 
 455   0.0000       1.757063        47.8121 
 456   0.0000       1.758209        47.8433 
[...]
Total number of batches                      ...      301
Average number of points per batch           ...       59
Average number of grid points per atom       ...      444

Memory available               ... 794.3 MB
Memory needed per perturbation ...  61.7 MB
Perturbations treated per batch... 3
Number of batches              ... 1
     CP-SCF ITERATION   0:   4.0996e-02 (   9.0 sec   0/  3 done)
     CP-SCF ITERATION   1:   1.5069e-03 (   9.3 sec   0/  3 done)
     CP-SCF ITERATION   2:   1.4905e-04 (   9.4 sec   3/  3 done)
                    *** THE CP-SCF HAS CONVERGED ***

Forming final perturbed densities           ... done
Transforming perturbed density to AO basis  ... done

 Raw HFC matrix (all values in MHz): 
 -----------------------------------
                 0.1414               0.0744              -0.0469
                 0.0746              -0.0496              -0.0160
                -0.0473              -0.0162              -0.0661

 A(FC)           0.0084               0.0084               0.0084
 A(SD)          -0.0841              -0.0858               0.1699
 A(ORB+DIA)      0.0005               0.0012              -0.0011    A(PC) =   0.0002
 A(ORB)          0.0005               0.0012              -0.0011    A(PC) =   0.0002
 A(DIA)         -0.0000              -0.0000               0.0000    A(PC) =  -0.0000
             ----------           ----------           ----------
 A(Tot)         -0.0752              -0.0763               0.1772    A(iso)=    0.0085
 Orientation: 
  X           0.3016724            0.2243313           -0.9266441
  Y          -0.9470604           -0.0414902           -0.3183633
  Z          -0.1098655            0.9736293            0.1999388

Notes:  (1) The A matrix conforms to the "SAI" spin Hamiltonian convention.
        (2) Tensor is right-handed.

 Raw EFG matrix (all values in a.u.**-3):
 -----------------------------------
            -0.0267       0.1900      -0.0153
             0.1900       0.1658      -0.0156
            -0.0153      -0.0156      -0.1391

 V(El)       0.5410       0.8134      -1.3544
 V(Nuc)     -0.6776      -0.9604       1.6380
         ----------   ----------   ----------
 V(Tot)     -0.1367      -0.1469       0.2836 
 Orientation: 
  X       0.4738517    0.7081964   -0.5233760
  Y      -0.3396224   -0.4013867   -0.8506147
  Z      -0.8124784    0.5808154    0.0503216

Note: Tensor is right-handed


 Quadrupole tensor eigenvalues (in MHz;Q= 0.0029 I=  1.0)
  e**2qQ            =     0.190436 MHz 
  e**2qQ/(4I*(2I-1))=     0.047609 MHz 
  eta               =     0.036303
  NOTE: the diagonal representation of the SH term I*Q*I = e**2qQ/(4I(2I-1))*[-(1-eta),-(1+eta),2]

 RHO(0)=      0.441808144 a.u.**-3

 -----------------------------------------------------------
 Nucleus  39H : A:ISTP=    1 I=  0.5 P=533.5514 MHz/au**3
                Q:ISTP=    2 I=  1.0 Q=  0.0029 barn     
 -----------------------------------------------------------
 Solving for nuclear perturbation:
Forming RHS of the CP-SCF equations         ... 
Calc. nucleus orbit integrals (SHARK)       ... done

------------------------------------------------------------------------------
                           ORCA CP-SCF CALCULATION
------------------------------------------------------------------------------

Input orbitals are from        ... input_0.gbw
Input Perturbation             ... input_0.pin.tmp
Wavefunction output            ... input_0.pout.tmp
Perturbation mode              ... Imaginary perturbation
Solver                         ... POPLE
Max. number of iterations      ... 64
Convergence tolerance          ... 1.000e-03
Integral handling              ... Direct
DFT GridXC                     ... 1
COSX GridX                     ... 1
COSX IntAccX                   ... 3.067
COSX Algorithm                 ... Auto
Number of perturbations        ... 3
Number of operators            ... 2
Orbital ranges used for CP-SCF:
 Operator 0:  Orbitals   0...160  to 161...680
 Operator 1:  Orbitals   0...159  to 160...680
Variables per perturbation     ... 167080
DFT calculation                         ... on
XC functional terms                     ... off
Hybrid DFT                              ... on
   Exchange mixing (SCF)                ...  0.200
   Exchange mixing (CP-SCF)             ...  0.200
   GGA exch. scaling(SCF)               ...  0.720
   GGA exch. scaling (CP-SCF)           ...  0.720
   GGA corr. scaling (SCF)              ...  0.810
   GGA corr. scaling (CP-SCF)           ...  0.810

CP-SCF GRID
-----------

General Integration Accuracy     IntAcc      ... 3.467
Radial Grid Type                 RadialGrid  ... OptM3 with GC (2021)
Angular Grid (max. ang.)         AngularGrid ... 1 (Lebedev-50)
Angular grid pruning method      GridPruning ... 4 (adaptive)
Weight generation scheme         WeightScheme... Becke
Basis function cutoff            BFCut       ... 1.0000e-10
Integration weight cutoff        WCut        ... 1.0000e-14
Angular grids for H and He will be reduced by one unit
Partially contracted basis set               ... off
Rotationally invariant grid construction     ... off

Total number of grid points                  ...    39325
Total number of batches                      ...      639
Average number of points per batch           ...       61
Average number of grid points per atom       ...      983

CP-SCF GRIDX
------------

General Integration Accuracy     IntAcc      ... 3.067
Radial Grid Type                 RadialGrid  ... OptM3 with GC (2021)
Angular Grid (max. ang.)         AngularGrid ... 1 (Lebedev-50)
Angular grid pruning method      GridPruning ... 4 (adaptive)
Weight generation scheme         WeightScheme... Becke
Basis function cutoff            BFCut       ... 1.0000e-10
Integration weight cutoff        WCut        ... 1.0000e-14
Angular grids for H and He will be reduced by one unit
Partially contracted basis set               ... on
Rotationally invariant grid construction     ... off

Total number of grid points                  ...    17766
Total number of batches                      ...      301
Average number of points per batch           ...       59
Average number of grid points per atom       ...      444

Memory available               ... 790.1 MB
Memory needed per perturbation ...  61.7 MB
Perturbations treated per batch... 3
Number of batches              ... 1
     CP-SCF ITERATION   0:   4.6023e-02 (   9.1 sec   0/  3 done)
     CP-SCF ITERATION   1:   1.8328e-03 (   9.3 sec   1/  3 done)
     CP-SCF ITERATION   2:   1.8579e-04 (   7.6 sec   3/  3 done)
                    *** THE CP-SCF HAS CONVERGED ***

Forming final perturbed densities           ... done
Transforming perturbed density to AO basis  ... done

 Raw HFC matrix (all values in MHz): 
 -----------------------------------
                 0.1927               0.0939              -0.1115
                 0.0941              -0.1121              -0.0333
                -0.1120              -0.0333              -0.0976

 A(FC)          -0.0061              -0.0061              -0.0061
 A(SD)          -0.1310              -0.1341               0.2652
 A(ORB+DIA)      0.0018               0.0008              -0.0015    A(PC) =   0.0004
 A(ORB)          0.0018               0.0009              -0.0015    A(PC) =   0.0004
 A(DIA)         -0.0000              -0.0001               0.0000    A(PC) =  -0.0000
             ----------           ----------           ----------
 A(Tot)         -0.1353              -0.1393               0.2576    A(iso)=   -0.0057
 Orientation: 
  X           0.3817133            0.1378007            0.9139507
  Y          -0.2905080           -0.9208244            0.2601683
  Z           0.8774395           -0.3648197           -0.3114587

Notes:  (1) The A matrix conforms to the "SAI" spin Hamiltonian convention.
        (2) Tensor is right-handed.

 Raw EFG matrix (all values in a.u.**-3):
 -----------------------------------
             0.1001      -0.0208       0.2139
            -0.0208      -0.1429      -0.0154
             0.2139      -0.0154       0.0428

 V(El)       0.6400       0.4546      -1.0946
 V(Nuc)     -0.7823      -0.6011       1.3834
         ----------   ----------   ----------
 V(Tot)     -0.1423      -0.1465       0.2888 
 Orientation: 
  X       0.4427732   -0.4892467   -0.7513918
  Y      -0.6927846   -0.7186689    0.0597025
  Z      -0.5692111    0.4941180   -0.6571499

Note: Tensor is right-handed


 Quadrupole tensor eigenvalues (in MHz;Q= 0.0029 I=  1.0)
  e**2qQ            =     0.193942 MHz 
  e**2qQ/(4I*(2I-1))=     0.048486 MHz 
  eta               =     0.014729
  NOTE: the diagonal representation of the SH term I*Q*I = e**2qQ/(4I(2I-1))*[-(1-eta),-(1+eta),2]

 RHO(0)=      0.442688405 a.u.**-3

 -----------------------------------------------------------
 Nucleus   0V : A:ISTP=   51 I=  3.5 P=140.5173 MHz/au**3
                Q:ISTP=   51 I=  3.5 Q= -0.0430 barn     
 -----------------------------------------------------------
 Solving for nuclear perturbation:
Forming RHS of the CP-SCF equations         ... 
Calc. nucleus orbit integrals (SHARK)       ... done

------------------------------------------------------------------------------
                           ORCA CP-SCF CALCULATION
------------------------------------------------------------------------------

Input orbitals are from        ... input_0.gbw
Input Perturbation             ... input_0.pin.tmp
Wavefunction output            ... input_0.pout.tmp
Perturbation mode              ... Imaginary perturbation
Solver                         ... POPLE
Max. number of iterations      ... 64
Convergence tolerance          ... 1.000e-03
Integral handling              ... Direct
DFT GridXC                     ... 1
COSX GridX                     ... 1
COSX IntAccX                   ... 3.067
COSX Algorithm                 ... Auto
Number of perturbations        ... 3
Number of operators            ... 2
Orbital ranges used for CP-SCF:
 Operator 0:  Orbitals   0...160  to 161...680
 Operator 1:  Orbitals   0...159  to 160...680
Variables per perturbation     ... 167080
DFT calculation                         ... on
XC functional terms                     ... off
Hybrid DFT                              ... on
   Exchange mixing (SCF)                ...  0.200
   Exchange mixing (CP-SCF)             ...  0.200
   GGA exch. scaling(SCF)               ...  0.720
   GGA exch. scaling (CP-SCF)           ...  0.720
   GGA corr. scaling (SCF)              ...  0.810
   GGA corr. scaling (CP-SCF)           ...  0.810

CP-SCF GRID
-----------

General Integration Accuracy     IntAcc      ... 3.467
Radial Grid Type                 RadialGrid  ... OptM3 with GC (2021)
Angular Grid (max. ang.)         AngularGrid ... 1 (Lebedev-50)
Angular grid pruning method      GridPruning ... 4 (adaptive)
Weight generation scheme         WeightScheme... Becke
Basis function cutoff            BFCut       ... 1.0000e-10
Integration weight cutoff        WCut        ... 1.0000e-14
Angular grids for H and He will be reduced by one unit
Partially contracted basis set               ... off
Rotationally invariant grid construction     ... off

Total number of grid points                  ...    39325
Total number of batches                      ...      639
Average number of points per batch           ...       61
Average number of grid points per atom       ...      983

CP-SCF GRIDX
------------

General Integration Accuracy     IntAcc      ... 3.067
Radial Grid Type                 RadialGrid  ... OptM3 with GC (2021)
Angular Grid (max. ang.)         AngularGrid ... 1 (Lebedev-50)
Angular grid pruning method      GridPruning ... 4 (adaptive)
Weight generation scheme         WeightScheme... Becke
Basis function cutoff            BFCut       ... 1.0000e-10
Integration weight cutoff        WCut        ... 1.0000e-14
Angular grids for H and He will be reduced by one unit
Partially contracted basis set               ... on
Rotationally invariant grid construction     ... off

Total number of grid points                  ...    17766
Total number of batches                      ...      301
Average number of points per batch           ...       59
Average number of grid points per atom       ...      444

Memory available               ... 785.9 MB
Memory needed per perturbation ...  61.7 MB
Perturbations treated per batch... 3
Number of batches              ... 1
     CP-SCF ITERATION   0:   1.3334e+01 (   9.8 sec   0/  3 done)
     CP-SCF ITERATION   1:   1.8676e+00 (   9.3 sec   0/  3 done)
     CP-SCF ITERATION   2:   3.3492e-01 (   9.3 sec   0/  3 done)
     CP-SCF ITERATION   3:   3.8232e-02 (   9.3 sec   0/  3 done)
     CP-SCF ITERATION   4:   5.1318e-03 (   9.4 sec   0/  3 done)
     CP-SCF ITERATION   5:   1.2648e-03 (   9.4 sec   2/  3 done)
     CP-SCF ITERATION   6:   2.7989e-04 (   5.7 sec   3/  3 done)
                    *** THE CP-SCF HAS CONVERGED ***

Forming final perturbed densities           ... done
Transforming perturbed density to AO basis  ... done

 Raw HFC matrix (all values in MHz): 
 -----------------------------------
               -96.3170               1.8450             -46.8704
                 1.7484             -84.9249              13.0299
               -45.7962              13.0521            -380.2729

 A(FC)        -175.3284            -175.3284            -175.3284
 A(SD)          97.8919              93.8392            -191.7311
 A(ORB+DIA)     -6.9011              -7.4758             -21.1527    A(PC) = -11.8432
 A(ORB)         -6.9006              -7.4763             -21.1525    A(PC) = -11.8432
 A(DIA)         -0.0004               0.0005              -0.0002    A(PC) =  -0.0000
             ----------           ----------           ----------
 A(Tot)        -84.3376             -88.9651            -388.2122    A(iso)= -187.1716
 Orientation: 
  X          -0.0494079           -0.9861105            0.1585712
  Y           0.9974381           -0.0569389           -0.0433037
  Z           0.0517311            0.1560255            0.9863975

Notes:  (1) The A matrix conforms to the "SAI" spin Hamiltonian convention.
        (2) Tensor is right-handed.

 Raw EFG matrix (all values in a.u.**-3):
 -----------------------------------
            -0.1586      -0.0245       0.1020
            -0.0245      -0.0432      -0.0277
             0.1020      -0.0277       0.2018

 V(El)       0.1796      -0.4758       0.2963
 V(Nuc)     -0.2248       0.2884      -0.0636
         ----------   ----------   ----------
 V(Tot)     -0.0452      -0.1874       0.2326 
 Orientation: 
  X      -0.0825095    0.9627394   -0.2575364
  Y       0.9860156    0.1164065    0.1192589
  Z       0.1447942   -0.2440949   -0.9588808

Note: Tensor is right-handed


 Quadrupole tensor eigenvalues (in MHz;Q=-0.0430 I=  3.5)
  e**2qQ            =    -2.350395 MHz 
  e**2qQ/(4I*(2I-1))=    -0.027981 MHz 
  eta               =     0.611295
  NOTE: the diagonal representation of the SH term I*Q*I = e**2qQ/(4I(2I-1))*[-(1-eta),-(1+eta),2]

 RHO(0)=   8115.209200554 a.u.**-3


--------------------------------------------------------------------------------
----------------------------------------------------------------------------
                           ORCA EULER ANGLE PROGRAM
----------------------------------------------------------------------------

Only g-tensor available        -->  using g-tensor as reference tensor

Reference tensor               ...  g

g-tensor ordering              ...  |g_min> --> |gx>
                                    |g_mid> --> |gy>
                                    |g_max> --> |gz>

A- and EFG-tensor ordering     ...  the axes |Ax>, |Qx>, |Ay>, etc. are assigned
                                    such that the Euler rotation is minimal. You
                                    can find the respective eigenvalues as Ax,
                                    EFGx, Ay, etc. in the tables below.
                                    The relation of |Ax>, |Ay>,  etc. to Amin, Amid, etc.
                                    (as printed in the ORCA EPR/NMR CALCULATION Output)
                                    is obtained in the detailed printout.

Euler rotation around          ...  z - y - z
   First rotation              -->  by alpha around z
   Second rotation             -->  by beta around y'
   Third rotation              -->  by gamma around z''
   Positive / Negative angle   -->  clockwise / counterclockwise rotation

Plot EFG-tensors                    (-)
Plot HFC-tensors                    (-)
Detailed Printout                   (-)

-------------------------------------------------------------------------
          Euler rotation of hyperfine tensor to g-tensor
-------------------------------------------------------------------------

-------------------------------------------------------------------
 Atom  |   Alpha    Beta    Gamma   |   Ax       Ay       Az 
       |          [degrees]         |           [MHz]         
-------------------------------------------------------------------
 25H      -19.5     11.6     45.9      -0.13     0.25    -0.13
 26H     -164.2     28.3   -173.5      -0.08     0.16    -0.08
 27H      114.7      5.7    -89.8      -0.07     0.13    -0.07
 28H      107.5      5.4    -92.1      -0.07     0.14    -0.07
 29H       34.1     32.9     -9.1      -0.08     0.16    -0.08
 30H      121.7     16.6    -95.9      -0.13     0.25    -0.13
 34H     -170.7     11.9    175.9      -0.14     0.26    -0.14
 35H      -53.4      7.8     52.4      -0.07     0.18    -0.07
 36H       34.8     11.3    -41.4      -0.07     0.14    -0.07
 37H       14.7     29.5     -9.7      -0.07     0.14    -0.07
 38H       86.9     20.0    -89.5      -0.08     0.18    -0.08
 39H       46.8     22.7    -40.7      -0.14     0.26    -0.14
  0V       75.3      4.9    -81.5    -388.21   -88.97   -84.34
-------------------------------------------------------------------


-------------------------------------------------------------------------------
    Euler rotation of Electric Field Gradient (EFG) tensor to g-tensor
-------------------------------------------------------------------------------

-------------------------------------------------------------------
 Atom  |   Alpha    Beta    Gamma  |   EFGx     EFGy     EFGz
       |          [degrees]        |         [a.u.**-3]       
-------------------------------------------------------------------
 25H      171.8     36.3    151.5     -0.14     0.28    -0.14
 26H       39.3     42.2    -69.3     -0.15    -0.16     0.30
 27H       60.9      6.1    -78.6      0.28    -0.14    -0.14
 28H       30.3      5.1    -64.6     -0.15     0.30    -0.14
 29H     -142.3     32.3    111.1     -0.13    -0.14     0.28
 30H        1.7     45.2    -36.0     -0.15     0.30    -0.15
 34H      -94.6     30.2    127.5      0.28    -0.14    -0.14
 35H     -117.9     53.8    135.8     -0.15     0.28    -0.14
 36H       95.9      8.0    -61.3      0.27    -0.14    -0.13
 37H       22.3      8.4    -61.1      0.27    -0.14    -0.13
 38H      -42.5     30.2     82.1     -0.15    -0.14     0.28
 39H      -87.8     43.6    121.9      0.29    -0.14    -0.15
  0V       55.9      9.8    -56.4      0.23    -0.19    -0.05
-------------------------------------------------------------------


Maximum memory used throughout the entire EPRNMR-calculation: 337.7 MB

Timings for individual modules:

Sum of individual times         ...     5565.873 sec (=  92.765 min)
GTO integral calculation        ...        1.498 sec (=   0.025 min)   0.0 %
Spin-Orbit-Coupling Matrices    ...       18.354 sec (=   0.306 min)   0.3 %
SCF iterations                  ...      226.196 sec (=   3.770 min)   4.1 %
EPR/NMR calculation             ...     5319.825 sec (=  88.664 min)  95.6 %
                             ****ORCA TERMINATED NORMALLY****
TOTAL RUN TIME: 0 days 1 hours 32 minutes 46 seconds 964 msec
