
                                 *****************
                                 * O   R   C   A *
                                 *****************

                                            #,                                       
                                            ###                                      
                                            ####                                     
                                            #####                                    
                                            ######                                   
                                           ########,                                 
                                     ,,################,,,,,                         
                               ,,#################################,,                 
                          ,,##########################################,,             
                       ,#########################################, ''#####,          
                    ,#############################################,,   '####,        
                  ,##################################################,,,,####,       
                ,###########''''           ''''###############################       
              ,#####''   ,,,,##########,,,,          '''####'''          '####       
            ,##' ,,,,###########################,,,                        '##       
           ' ,,###''''                  '''############,,,                           
         ,,##''                                '''############,,,,        ,,,,,,###''
      ,#''                                            '''#######################'''  
     '                                                          ''''####''''         
             ,#######,   #######,   ,#######,      ##                                
            ,#'     '#,  ##    ##  ,#'     '#,    #''#        ######   ,####,        
            ##       ##  ##   ,#'  ##            #'  '#       #        #'  '#        
            ##       ##  #######   ##           ,######,      #####,   #    #        
            '#,     ,#'  ##    ##  '#,     ,#' ,#      #,         ##   #,  ,#        
             '#######'   ##     ##  '#######'  #'      '#     #####' # '####'        



                  #######################################################
                  #                        -***-                        #
                  #          Department of theory and spectroscopy      #
                  #    Directorship and core code : Frank Neese         #
                  #        Max Planck Institute fuer Kohlenforschung    #
                  #                Kaiser Wilhelm Platz 1               #
                  #                 D-45470 Muelheim/Ruhr               #
                  #                      Germany                        #
                  #                                                     #
                  #                  All rights reserved                #
                  #                        -***-                        #
                  #######################################################


                         Program Version 5.0.4 -  RELEASE  -


 With contributions from (in alphabetic order):
   Daniel Aravena         : Magnetic Suceptibility
   Michael Atanasov       : Ab Initio Ligand Field Theory (pilot matlab implementation)
   Alexander A. Auer      : GIAO ZORA, VPT2 properties, NMR spectrum
   Ute Becker             : Parallelization
   Giovanni Bistoni       : ED, misc. LED, open-shell LED, HFLD
   Martin Brehm           : Molecular dynamics
   Dmytro Bykov           : SCF Hessian
   Vijay G. Chilkuri      : MRCI spin determinant printing, contributions to CSF-ICE
   Dipayan Datta          : RHF DLPNO-CCSD density
   Achintya Kumar Dutta   : EOM-CC, STEOM-CC
   Dmitry Ganyushin       : Spin-Orbit,Spin-Spin,Magnetic field MRCI
   Miquel Garcia          : C-PCM and meta-GGA Hessian, CC/C-PCM, Gaussian charge scheme
   Yang Guo               : DLPNO-NEVPT2, F12-NEVPT2, CIM, IAO-localization
   Andreas Hansen         : Spin unrestricted coupled pair/coupled cluster methods
   Benjamin Helmich-Paris : MC-RPA, TRAH-SCF, COSX integrals
   Lee Huntington         : MR-EOM, pCC
   Robert Izsak           : Overlap fitted RIJCOSX, COSX-SCS-MP3, EOM
   Marcus Kettner         : VPT2
   Christian Kollmar      : KDIIS, OOCD, Brueckner-CCSD(T), CCSD density, CASPT2, CASPT2-K
   Simone Kossmann        : Meta GGA functionals, TD-DFT gradient, OOMP2, MP2 Hessian
   Martin Krupicka        : Initial AUTO-CI
   Lucas Lang             : DCDCAS
   Marvin Lechner         : AUTO-CI (C++ implementation), FIC-MRCC
   Dagmar Lenk            : GEPOL surface, SMD
   Dimitrios Liakos       : Extrapolation schemes; Compound Job, initial MDCI parallelization
   Dimitrios Manganas     : Further ROCIS development; embedding schemes
   Dimitrios Pantazis     : SARC Basis sets
   Anastasios Papadopoulos: AUTO-CI, single reference methods and gradients
   Taras Petrenko         : DFT Hessian,TD-DFT gradient, ASA, ECA, R-Raman, ABS, FL, XAS/XES, NRVS
   Peter Pinski           : DLPNO-MP2, DLPNO-MP2 Gradient
   Christoph Reimann      : Effective Core Potentials
   Marius Retegan         : Local ZFS, SOC
   Christoph Riplinger    : Optimizer, TS searches, QM/MM, DLPNO-CCSD(T), (RO)-DLPNO pert. Triples
   Tobias Risthaus        : Range-separated hybrids, TD-DFT gradient, RPA, STAB
   Michael Roemelt        : Original ROCIS implementation
   Masaaki Saitow         : Open-shell DLPNO-CCSD energy and density
   Barbara Sandhoefer     : DKH picture change effects
   Avijit Sen             : IP-ROCIS
   Kantharuban Sivalingam : CASSCF convergence, NEVPT2, FIC-MRCI
   Bernardo de Souza      : ESD, SOC TD-DFT
   Georgi Stoychev        : AutoAux, RI-MP2 NMR, DLPNO-MP2 response
   Willem Van den Heuvel  : Paramagnetic NMR
   Boris Wezisla          : Elementary symmetry handling
   Frank Wennmohs         : Technical directorship


 We gratefully acknowledge several colleagues who have allowed us to
 interface, adapt or use parts of their codes:
   Stefan Grimme, W. Hujo, H. Kruse, P. Pracht,  : VdW corrections, initial TS optimization,
                  C. Bannwarth, S. Ehlert          DFT functionals, gCP, sTDA/sTD-DF
   Ed Valeev, F. Pavosevic, A. Kumar             : LibInt (2-el integral package), F12 methods
   Garnet Chan, S. Sharma, J. Yang, R. Olivares  : DMRG
   Ulf Ekstrom                                   : XCFun DFT Library
   Mihaly Kallay                                 : mrcc  (arbitrary order and MRCC methods)
   Jiri Pittner, Ondrej Demel                    : Mk-CCSD
   Frank Weinhold                                : gennbo (NPA and NBO analysis)
   Christopher J. Cramer and Donald G. Truhlar   : smd solvation model
   Lars Goerigk                                  : TD-DFT with DH, B97 family of functionals
   V. Asgeirsson, H. Jonsson                     : NEB implementation
   FAccTs GmbH                                   : IRC, NEB, NEB-TS, DLPNO-Multilevel, CI-OPT
                                                   MM, QMMM, 2- and 3-layer-ONIOM, Crystal-QMMM,
                                                   LR-CPCM, SF, NACMEs, symmetry and pop. for TD-DFT,
                                                   nearIR, NL-DFT gradient (VV10), updates on ESD,
                                                   ML-optimized integration grids
   S Lehtola, MJT Oliveira, MAL Marques          : LibXC Library
   Liviu Ungur et al                             : ANISO software


 Your calculation uses the libint2 library for the computation of 2-el integrals
 For citations please refer to: http://libint.valeyev.net

 Your ORCA version has been built with support for libXC version: 5.1.0
 For citations please refer to: https://tddft.org/programs/libxc/

 This ORCA versions uses:
   CBLAS   interface :  Fast vector & matrix operations
   LAPACKE interface :  Fast linear algebra routines
   SCALAPACK package :  Parallel linear algebra routines
   Shared memory     :  Shared parallel matrices
   BLAS/LAPACK       :  OpenBLAS 0.3.15  USE64BITINT DYNAMIC_ARCH NO_AFFINITY Prescott SINGLE_THREADED
        Core in use  :  Prescott
   Copyright (c) 2011-2014, The OpenBLAS Project


================================================================================

----- Orbital basis set information -----
Your calculation utilizes the basis: TZVP 

The basis set includes element-specific modifications.

Your calculation utilizes the basis: CP(PPP) 

----- AuxJ basis set information -----
Your calculation utilizes the auxiliary basis: def2/J
   F. Weigend, Phys. Chem. Chem. Phys. 8, 1057 (2006).

================================================================================
                                        WARNINGS
                       Please study these warnings very carefully!
================================================================================


WARNING: your system is open-shell and RHF/RKS was chosen
  ===> : WILL SWITCH to UHF/UKS


INFO   : the flag for use of the SHARK integral package has been found!

================================================================================
                                       INPUT FILE
================================================================================
NAME = input_34.inp
|  1> ! nofrozencore ReducedPop printbasis
|  2> ! B3LYP TZVP
|  3> 
|  4> %basis
|  5> newgto V "CP(PPP)" end
|  6> end
|  7> 
|  8> %pal
|  9> nprocs 4
| 10> end
| 11> 
| 12> % sym SymThresh 1e-2 end
| 13> * xyz -2 2 
| 14> V -0.4117926997559723 -0.2638441616960323 0.07302602063378237
| 15> S 0.648596575423558 -1.5677673455324304 -1.819949607329288
| 16> S 1.565705460525884 -1.0719776942512516 1.2709583219316043
| 17> S -0.9218121340227153 1.5615865076327402 -1.5319485713162402
| 18> S -0.6042179406968723 1.6267703933247977 1.6740362524915384
| 19> O -1.677102060944994 -1.1768018854921793 0.3935983375474368
| 20> C 1.589902197359829 -0.4419866640825037 2.956735834749802
| 21> C -0.6133803312734011 0.8072228988817678 3.4221848594938367
| 22> C -0.07866476194126407 -0.3543240765971645 3.625356239000285
| 23> H -1.7175705820324156 0.7508610915809176 3.5267680300879927
| 24> H -0.2145723155820352 1.429598268184122 4.261826448006502
| 25> H -0.6429568618416899 -1.212842866800686 3.251719904024081
| 26> H -0.16284777272988502 -0.3528014472954932 4.753308632141314
| 27> H 2.1153471108142172 0.5258228182477014 2.898609979077383
| 28> H 2.1663592102650395 -1.1269277997997402 3.5986575105746517
| 29> C 1.4104130911751283 -0.21480726815947915 -2.8368119239917338
| 30> C -0.9433901480801161 0.7692390788374525 -3.1959265545743825
| 31> C 0.4640090496804954 0.46669764756887927 -3.7929679026958927
| 32> H -1.4985746505001751 1.4316748581262666 -3.871183763913619
| 33> H -1.4883263118408157 -0.1722127164471277 -3.1220289225878766
| 34> H 0.9454692084608318 1.3970655418173357 -4.1345652881965815
| 35> H 0.3405663660789656 -0.17496068218668448 -4.680415860294845
| 36> H 2.2451367525791164 -0.6409912874142422 -3.40588346475368
| 37> H 1.8287654712643902 0.5205780551764358 -2.1492842303329387
| 38> * 
| 39> 
| 40> % eprnmr
| 41> gtensor true
| 42> Nuclei = all H {aiso,adip,aorb,fgrad,rho}
| 43> Nuclei = all V {aiso,adip,aorb,fgrad,rho}
| 44> end
| 45> 
| 46>                          ****END OF INPUT****
================================================================================

------------------------------------------------------------------------------
                            SYMMETRY HANDLING SETUP
------------------------------------------------------------------------------

------------------
SYMMETRY DETECTION
------------------
The point group will now be determined using a tolerance of 1.0000e-02.
Splitting atom subsets according to nuclear charge, mass and basis set.
Splitting atom subsets according to distance from the molecule's center.
Identifying relative distance patterns of the atoms.
Splitting atom subsets according to atoms' relative distance patterns.
Bring atoms of each subset into input order.
The molecule is neither linear nor planar.
There is at least one atom subset not centered around the molecule's center.
The molecule does not have a center of inversion.
Analyzing the first atom subset for its symmetry.
The subset is an off-center atom pair.
Testing point group C2v.
Test failed.
Testing point group C2.
Test failed.
Testing point group Cs.
Test failed.
Testing point group Cs.
Test failed.
No testing is needed for point group C1.
This point group has been found:    C1
Largest non-degenerate subgroup:    C1


Mass-centered symmetry-perfected Cartesians (point group C1):

Atom          Symmetry-perfected Cartesians (x, y, z; au)
  0      -0.779340620465   -0.499339623826    0.137650407242
  1       1.224504704972   -2.963397340948   -3.439555107796
  2       2.957589332801   -2.026490679994    2.401414383673
  3      -1.743137674206    2.950224417665   -2.895312023445
  4      -1.142971627097    3.073404109968    3.163121283059
  5      -3.170428787799   -2.224579693649    0.743444292326
  6       3.003314538752   -0.835980166148    5.587072205622
  7      -1.160286036018    1.524683791730    6.466643391689
  8      -0.149820050437   -0.670321883610    6.850581657208
  9      -3.246903209699    1.418175411518    6.664276942330
 10      -0.406648106349    2.700802792209    8.053336044629
 11      -1.216177578784   -2.292687277920    6.144511310420
 12      -0.308902885956   -0.667444531226    8.982102772345
 13       3.996261523643    0.992914705268    5.477230257102
 14       4.092660421121   -2.130331330511    6.800128372359
 15       2.664129284041   -0.406673324584   -5.361146402192
 16      -1.783914211289    1.452904774326   -6.039774704678
 17       0.875684833579    0.881184325064   -7.168019343255
 18      -2.833060874660    2.704726978492   -7.315825900285
 19      -2.813694321266   -0.326181287051   -5.900128418278
 20       1.785512678069    2.639324848986   -7.813544849914
 21       0.642411968336   -0.331374189724   -8.845052941224
 22       4.241528401598   -1.212044403629   -6.436535764841
 23       3.454700709883    0.983003539426   -4.061907351691


------------------
SYMMETRY REDUCTION
------------------
ORCA supports only abelian point groups.
It is now checked, if the determined point group is supported:
Point Group ( C1    ) is          ... supported

The point group is C1 - hence turning off symmetry
If this is a round-off problem, please increase the symmetry
        detection tolerance (%method SymThresh)

Storing the symmetry object:
Symmetry file                     ... input_34.sym.tmp
Writing symmetry information      ... done

                       ****************************
                       * Single Point Calculation *
                       ****************************

---------------------------------
CARTESIAN COORDINATES (ANGSTROEM)
---------------------------------
  V     -0.412409   -0.264239    0.072841
  S      0.647980   -1.568162   -1.820134
  S      1.565089   -1.072373    1.270774
  S     -0.922429    1.561192   -1.532133
  S     -0.604835    1.626375    1.673852
  O     -1.677719   -1.177197    0.393414
  C      1.589286   -0.442382    2.956551
  C     -0.613997    0.806828    3.422000
  C     -0.079281   -0.354719    3.625172
  H     -1.718187    0.750466    3.526583
  H     -0.215189    1.429203    4.261642
  H     -0.643573   -1.213238    3.251535
  H     -0.163464   -0.353196    4.753124
  H      2.114731    0.525428    2.898425
  H      2.165743   -1.127323    3.598473
  C      1.409796   -0.215202   -2.836996
  C     -0.944007    0.768844   -3.196111
  C      0.463392    0.466303   -3.793152
  H     -1.499191    1.431280   -3.871368
  H     -1.488943   -0.172608   -3.122213
  H      0.944853    1.396671   -4.134750
  H      0.339950   -0.175356   -4.680600
  H      2.244520   -0.641386   -3.406068
  H      1.828149    0.520183   -2.149469

----------------------------
CARTESIAN COORDINATES (A.U.)
----------------------------
  NO LB      ZA    FRAG     MASS         X           Y           Z
   0 V    23.0000    0    50.940   -0.779341   -0.499340    0.137650
   1 S    16.0000    0    32.060    1.224505   -2.963397   -3.439555
   2 S    16.0000    0    32.060    2.957589   -2.026491    2.401414
   3 S    16.0000    0    32.060   -1.743138    2.950224   -2.895312
   4 S    16.0000    0    32.060   -1.142972    3.073404    3.163121
   5 O     8.0000    0    15.999   -3.170429   -2.224580    0.743444
   6 C     6.0000    0    12.011    3.003315   -0.835980    5.587072
   7 C     6.0000    0    12.011   -1.160286    1.524684    6.466643
   8 C     6.0000    0    12.011   -0.149820   -0.670322    6.850582
   9 H     1.0000    0     1.008   -3.246903    1.418175    6.664277
  10 H     1.0000    0     1.008   -0.406648    2.700803    8.053336
  11 H     1.0000    0     1.008   -1.216178   -2.292687    6.144511
  12 H     1.0000    0     1.008   -0.308903   -0.667445    8.982103
  13 H     1.0000    0     1.008    3.996262    0.992915    5.477230
  14 H     1.0000    0     1.008    4.092660   -2.130331    6.800128
  15 C     6.0000    0    12.011    2.664129   -0.406673   -5.361146
  16 C     6.0000    0    12.011   -1.783914    1.452905   -6.039775
  17 C     6.0000    0    12.011    0.875685    0.881184   -7.168019
  18 H     1.0000    0     1.008   -2.833061    2.704727   -7.315826
  19 H     1.0000    0     1.008   -2.813694   -0.326181   -5.900128
  20 H     1.0000    0     1.008    1.785513    2.639325   -7.813545
  21 H     1.0000    0     1.008    0.642412   -0.331374   -8.845053
  22 H     1.0000    0     1.008    4.241528   -1.212044   -6.436536
  23 H     1.0000    0     1.008    3.454701    0.983004   -4.061907

--------------------------------
INTERNAL COORDINATES (ANGSTROEM)
--------------------------------
 V      0   0   0     0.000000000000     0.00000000     0.00000000
 S      1   0   0     2.531402341060     0.00000000     0.00000000
 S      1   2   0     2.449208153435    81.81199151     0.00000000
 S      1   2   3     2.483598275217    88.93242017   137.27909968
 S      1   2   3     2.484891271569   154.97897090    71.81971343
 O      1   2   3     1.592879843341   100.83713112   250.34209329
 C      3   1   2     1.799811102002   110.70031613   178.16317684
 C      5   1   2     1.930742239972   105.11608100   236.70980824
 C      8   5   1     1.294755083319   121.39402708    24.59769985
 H      8   5   1     1.110563101658    96.40328591   265.81745537
 H      8   5   1     1.118658540777   116.21524166   151.91205967
 H      9   8   5     1.093199066025   115.95859166   285.23495641
 H      9   8   5     1.131090491030    97.15411682   171.57668237
 H      7   3   1     1.102781105325   105.32105449   271.52732718
 H      7   3   1     1.101594519331   109.58440631   154.30813457
 C      2   1   3     1.856037269476   101.89671753   257.69279229
 C      4   1   2     1.843123106951   105.65551069    22.93620635
 C     16   2   1     1.508099405056   114.78327234   276.97918311
 H     17   4   1     1.096824184714   107.58359043   160.29851424
 H     17   4   1     1.090297099616   108.41317451    43.65019786
 H     18  16   2     1.101851658311   107.69285344   165.47388042
 H     18  16   2     1.102055981212   108.52575819   280.87453912
 H     16   2   1     1.096466519179   108.26925446   155.06701138
 H     16   2   1     1.090185588444   107.68055048    39.35139502

---------------------------
INTERNAL COORDINATES (A.U.)
---------------------------
 V      0   0   0     0.000000000000     0.00000000     0.00000000
 S      1   0   0     4.783657159371     0.00000000     0.00000000
 S      1   2   0     4.628332654959    81.81199151     0.00000000
 S      1   2   3     4.693320566839    88.93242017   137.27909968
 S      1   2   3     4.695763975837   154.97897090    71.81971343
 O      1   2   3     3.010106668158   100.83713112   250.34209329
 C      3   1   2     3.401150075575   110.70031613   178.16317684
 C      5   1   2     3.648574068741   105.11608100   236.70980824
 C      8   5   1     2.446732517976   121.39402708    24.59769985
 H      8   5   1     2.098660116572    96.40328591   265.81745537
 H      8   5   1     2.113958279441   116.21524166   151.91205967
 H      9   8   5     2.065846844645   115.95859166   285.23495641
 H      9   8   5     2.137451260729    97.15411682   171.57668237
 H      7   3   1     2.083954274727   105.32105449   271.52732718
 H      7   3   1     2.081711952163   109.58440631   154.30813457
 C      2   1   3     3.507402133661   101.89671753   257.69279229
 C      4   1   2     3.482997903240   105.65551069    22.93620635
 C     16   2   1     2.849894858286   114.78327234   276.97918311
 H     17   4   1     2.072697326171   107.58359043   160.29851424
 H     17   4   1     2.060362922884   108.41317451    43.65019786
 H     18  16   2     2.082197874414   107.69285344   165.47388042
 H     18  16   2     2.082583988741   108.52575819   280.87453912
 H     16   2   1     2.072021436263   108.26925446   155.06701138
 H     16   2   1     2.060152197308   107.68055048    39.35139502

---------------------
BASIS SET INFORMATION
---------------------
There are 5 groups of distinct atoms

 Group   1 Type V   : 17s11p5d1f contracted to 17s7p3d1f pattern {11111111111111111/3311111/311/1}
 Group   2 Type S   : 14s9p1d contracted to 5s4p1d pattern {73211/6111/1}
 Group   3 Type O   : 11s6p1d contracted to 5s3p1d pattern {62111/411/1}
 Group   4 Type C   : 11s6p1d contracted to 5s3p1d pattern {62111/411/1}
 Group   5 Type H   : 5s1p contracted to 3s1p pattern {311/1}

Atom   0V    basis set group =>   1
Atom   1S    basis set group =>   2
Atom   2S    basis set group =>   2
Atom   3S    basis set group =>   2
Atom   4S    basis set group =>   2
Atom   5O    basis set group =>   3
Atom   6C    basis set group =>   4
Atom   7C    basis set group =>   4
Atom   8C    basis set group =>   4
Atom   9H    basis set group =>   5
Atom  10H    basis set group =>   5
Atom  11H    basis set group =>   5
Atom  12H    basis set group =>   5
Atom  13H    basis set group =>   5
Atom  14H    basis set group =>   5
Atom  15C    basis set group =>   4
Atom  16C    basis set group =>   4
Atom  17C    basis set group =>   4
Atom  18H    basis set group =>   5
Atom  19H    basis set group =>   5
Atom  20H    basis set group =>   5
Atom  21H    basis set group =>   5
Atom  22H    basis set group =>   5
Atom  23H    basis set group =>   5

-------------------------
BASIS SET IN INPUT FORMAT
-------------------------

 # Basis set for element : H 
 NewGTO H 
 S 3 
   1      34.0613410000      0.0254393168
   2       5.1235746000      0.1900859340
   3       1.1646626000      0.8524411390
 S 1 
   1       0.3272304100      1.0000000000
 S 1 
   1       0.1030724100      1.0000000000
 P 1 
   1       0.8000000000      1.0000000000
  end;

 # Basis set for element : C 
 NewGTO C 
 S 6 
   1   13575.3496820000      0.0006064601
   2    2035.2333680000      0.0046978985
   3     463.2256235900      0.0243324735
   4     131.2001959800      0.0973999560
   5      42.8530158900      0.3019558443
   6      15.5841857700      0.6623361013
 S 2 
   1       6.2067138500      0.6559530795
   2       2.5764896500      0.3758563390
 S 1 
   1       0.5769633900      1.0000000000
 S 1 
   1       0.2297283100      1.0000000000
 S 1 
   1       0.0951644400      1.0000000000
 P 4 
   1      34.6972322400      0.0113272290
   2       7.9582622800      0.0761696612
   3       2.3780826900      0.3019225154
   4       0.8143320800      0.7278502776
 P 1 
   1       0.2888754700      1.0000000000
 P 1 
   1       0.1005682400      1.0000000000
 D 1 
   1       0.8000000000      1.0000000000
  end;

 # Basis set for element : O 
 NewGTO O 
 S 6 
   1   27032.3826310000      0.0005722654
   2    4052.3871392000      0.0044353333
   3     922.3272271000      0.0230201034
   4     261.2407098900      0.0928224938
   5      85.3546413500      0.2937849971
   6      31.0350352400      0.6740160462
 S 2 
   1      12.2608607300      0.6383993750
   2       4.9987076000      0.3953458663
 S 1 
   1       1.1703108200      1.0000000000
 S 1 
   1       0.4647474100      1.0000000000
 S 1 
   1       0.1850453600      1.0000000000
 P 4 
   1      63.2749548000      0.0120183316
   2      14.6270493800      0.0830054304
   3       4.4501223500      0.3199174388
   4       1.5275799600      0.7071554258
 P 1 
   1       0.5293511800      1.0000000000
 P 1 
   1       0.1747842100      1.0000000000
 D 1 
   1       1.2000000000      1.0000000000
  end;

 # Basis set for element : S 
 NewGTO S 
 S 7 
   1   60700.9281040000      0.0005238013
   2    9102.6106854000      0.0040506304
   3    2071.4166009000      0.0208270003
   4     586.0247682100      0.0814968475
   5     190.5539502100      0.2374911358
   6      67.6303842600      0.4472617145
   7      25.1273069100      0.3489191913
 S 3 
   1     112.5746301000      0.1004556993
   2      34.7955542200      0.4339117282
   3       6.5115556200     -1.2084330582
 S 2 
   1       3.2399032300      0.6749812922
   2       1.5477160900      0.3470879597
 S 1 
   1       0.4054103000      1.0000000000
 S 1 
   1       0.1455065100      1.0000000000
 P 6 
   1     564.3671602700      0.0025564845
   2     133.4262437900      0.0202874255
   3      42.4682711900      0.0927670112
   4      15.6165275800      0.2650208365
   5       6.1093988500      0.4486298663
   6       2.4404160200      0.3596369916
 P 1 
   1       0.8388220100      1.0000000000
 P 1 
   1       0.3128874700      1.0000000000
 P 1 
   1       0.1077010900      1.0000000000
 D 1 
   1       0.5500000000      1.0000000000
  end;

 # Basis set for element : V 
 NewGTO V 
 S 1 
   1  4239814.9912500000      1.0000000000
 S 1 
   1  1695925.9965000001      1.0000000000
 S 1 
   1  678370.3986000001      1.0000000000
 S 1 
   1  271348.1594400000      1.0000000000
 S 1 
   1   40672.0050780000      1.0000000000
 S 1 
   1    9257.0761385000      1.0000000000
 S 1 
   1    2622.7328773000      1.0000000000
 S 1 
   1     858.5948018500      1.0000000000
 S 1 
   1     314.1941865000      1.0000000000
 S 1 
   1     124.4786212700      1.0000000000
 S 1 
   1      50.4693993090      1.0000000000
 S 1 
   1      12.5138469110      1.0000000000
 S 1 
   1       5.3447758082      1.0000000000
 S 1 
   1       1.5755631295      1.0000000000
 S 1 
   1       0.6306903307      1.0000000000
 S 1 
   1       0.0879544416      1.0000000000
 S 1 
   1       0.0342969197      1.0000000000
 P 3 
   1    1450.0319327000     -0.0222847647
   2     343.7504988400     -0.1817959329
   3     110.8252170800     -0.8607412073
 P 3 
   1      41.8224645460     -0.2522537814
   2      17.0880737100     -0.4620379520
   3       7.2613218939     -0.3990010670
 P 1 
   1       2.9458145262      1.0000000000
 P 1 
   1       1.1650209680      1.0000000000
 P 1 
   1       0.4339937839      1.0000000000
 D 3 
   1      27.3603358640      0.0575501019
   2       7.4542765527      0.3023798347
   3       2.4632270217      0.7724212088
 D 1 
   1       0.8249954244      1.0000000000
 D 1 
   1       0.2526297057      1.0000000000
 P 1 
   1       0.1112480000      1.0000000000
 P 1 
   1       0.0363780000      1.0000000000
 F 1 
   1       1.8000000000      1.0000000000
  end;

---------------------------------
AUXILIARY/J BASIS SET INFORMATION
---------------------------------
There are 5 groups of distinct atoms

 Group   1 Type V   : 19s5p5d3f3g contracted to 8s5p5d2f3g pattern {121111111/11111/11111/21/111}
 Group   2 Type S   : 14s5p5d2f1g contracted to 8s4p3d1f1g pattern {71111111/2111/311/2/1}
 Group   3 Type O   : 12s5p4d2f1g contracted to 6s4p3d1f1g pattern {711111/2111/211/2/1}
 Group   4 Type C   : 12s5p4d2f1g contracted to 6s4p3d1f1g pattern {711111/2111/211/2/1}
 Group   5 Type H   : 5s2p1d contracted to 3s1p1d pattern {311/2/1}

Atom   0V    basis set group =>   1
Atom   1S    basis set group =>   2
Atom   2S    basis set group =>   2
Atom   3S    basis set group =>   2
Atom   4S    basis set group =>   2
Atom   5O    basis set group =>   3
Atom   6C    basis set group =>   4
Atom   7C    basis set group =>   4
Atom   8C    basis set group =>   4
Atom   9H    basis set group =>   5
Atom  10H    basis set group =>   5
Atom  11H    basis set group =>   5
Atom  12H    basis set group =>   5
Atom  13H    basis set group =>   5
Atom  14H    basis set group =>   5
Atom  15C    basis set group =>   4
Atom  16C    basis set group =>   4
Atom  17C    basis set group =>   4
Atom  18H    basis set group =>   5
Atom  19H    basis set group =>   5
Atom  20H    basis set group =>   5
Atom  21H    basis set group =>   5
Atom  22H    basis set group =>   5
Atom  23H    basis set group =>   5

-------------------------------------
AUXILIARY/J BASIS SET IN INPUT FORMAT
-------------------------------------

 # Auxiliary/J basis set for element : H 
 NewAuxJGTO H 
 S 3 
   1      15.6752927000      0.1007184237
   2       3.6063578000      0.3404257499
   3       1.2080016000      0.6491996172
 S 1 
   1       0.4726794000      1.0000000000
 S 1 
   1       0.2018100000      1.0000000000
 P 2 
   1       2.0281365000      0.5596620919
   2       0.5358730000      0.5596620919
 D 1 
   1       2.2165124000      1.0000000000
  end;

 # Auxiliary/J basis set for element : C 
 NewAuxJGTO C 
 S 7 
   1    1861.0916331000      0.0134602335
   2     642.9939764000      0.0299160374
   3     235.1105725000      0.1008649584
   4      90.7028894000      0.2370970548
   5      36.7794552000      0.3924037254
   6      15.6046273000      0.3195862154
   7       6.8907294000      0.0530104441
 S 1 
   1       3.1478850000     -1.0000000000
 S 1 
   1       1.4777287000      1.0000000000
 S 1 
   1       0.7076466000      1.0000000000
 S 1 
   1       0.3430122000      1.0000000000
 S 1 
   1       0.1669453000      1.0000000000
 P 2 
   1      13.5472892000     -0.6769313712
   2       5.4669419000     -0.3779500978
 P 1 
   1       2.1751721000      1.0000000000
 P 1 
   1       0.8582194000      1.0000000000
 P 1 
   1       0.3376720000      1.0000000000
 D 2 
   1       5.9287253000     -0.3533329857
   2       1.9809209000     -0.7456525731
 D 1 
   1       0.8055417000     -1.0000000000
 D 1 
   1       0.3531244000     -1.0000000000
 F 2 
   1       1.6755626000      0.6311076882
   2       0.5997536000      0.4968166032
 G 1 
   1       1.0024600000     -1.0000000000
  end;

 # Auxiliary/J basis set for element : O 
 NewAuxJGTO O 
 S 7 
   1    2876.8216605000      0.0168151159
   2    1004.7443032000      0.0340137548
   3     369.7579954000      0.1194951309
   4     142.9442404000      0.2664627624
   5      57.8366425000      0.4202764046
   6      24.3864983000      0.2765077335
   7      10.6622662000      0.0057008815
 S 1 
   1       4.8070437000     -1.0000000000
 S 1 
   1       2.2210770000      1.0000000000
 S 1 
   1       1.0447795000      1.0000000000
 S 1 
   1       0.4968425000      1.0000000000
 S 1 
   1       0.2371384000      1.0000000000
 P 2 
   1      64.2613382000     -0.2731534179
   2      16.3006076000     -0.8168011598
 P 1 
   1       4.3550542000      1.0000000000
 P 1 
   1       1.2019554000      1.0000000000
 P 1 
   1       0.3354196000      1.0000000000
 D 2 
   1       9.2146611000     -0.4661230638
   2       2.8435251000     -0.6600908911
 D 1 
   1       0.9955759000     -1.0000000000
 D 1 
   1       0.3649441000     -1.0000000000
 F 2 
   1       2.6420115000      0.5931563945
   2       0.7345613000      0.5931563945
 G 1 
   1       1.3931000000     -1.0000000000
  end;

 # Auxiliary/J basis set for element : S 
 NewAuxJGTO S 
 S 7 
   1    7399.0303145000      0.0295137551
   2    2710.1675859000      0.0559686311
   3    1034.3279062000      0.1764696370
   4     410.4645411000      0.3577969368
   5     168.9762502000      0.4299293578
   6      71.9687889000      0.1259148089
   7      31.6172683000     -0.0646025788
 S 1 
   1      14.2796836000      1.0000000000
 S 1 
   1       6.6060948000      1.0000000000
 S 1 
   1       3.1181477000      1.0000000000
 S 1 
   1       1.4954039000     -1.0000000000
 S 1 
   1       0.7254779000      1.0000000000
 S 1 
   1       0.3544216000      1.0000000000
 S 1 
   1       0.1735525000      1.0000000000
 P 2 
   1      12.6998799000      1.4059102813
   2       4.4295784000     -1.2124994202
 P 1 
   1       1.5232889000      1.0000000000
 P 1 
   1       0.5194667000     -1.0000000000
 P 1 
   1       0.1766547000     -1.0000000000
 D 3 
   1      16.8546461000      1.0295742104
   2       5.0810461000     -0.7461553923
   3       1.5102323000      0.8357028005
 D 1 
   1       0.4451331000      1.0000000000
 D 1 
   1       0.1308362000      1.0000000000
 F 2 
   1       1.0809860000      0.5572698934
   2       0.4161474000      0.5572698934
 G 1 
   1       0.6707100000     -1.0000000000
  end;

 # Auxiliary/J basis set for element : V 
 NewAuxJGTO V 
 S 12 
   1   11942.0842430000      0.0459866720
   2    2430.7110193000      0.1744615821
   3     841.0764301000      0.2900402792
   4     494.7508273000      0.1411212903
   5     291.0298903000      0.2660697186
   6     171.1940483000      0.0446365706
   7      59.2366916000     -0.0408204801
   8      34.8451117000      0.1394665381
   9      20.4971240000      0.2164746715
  10      12.0571314000      0.0864266611
  11       7.0924300000     -0.0568501658
  12       4.1720176000     -0.0126212852
 S 1 
   1       2.4541279000      1.0000000000
 S 1 
   1       1.4436046000      1.0000000000
 S 1 
   1       0.8491792000      1.0000000000
 S 1 
   1       0.2938336000      1.0000000000
 S 1 
   1       0.1728433000      1.0000000000
 S 1 
   1       0.1016725000      1.0000000000
 S 1 
   1       0.0598074000      1.0000000000
 P 1 
   1      16.7130979000     -1.0000000000
 P 1 
   1       4.7454037000     -1.0000000000
 P 1 
   1       1.3889998000      1.0000000000
 P 1 
   1       0.4142440000     -1.0000000000
 P 1 
   1       0.1243234000      1.0000000000
 D 1 
   1       7.7143225000      1.0000000000
 D 1 
   1       3.1170731000      1.0000000000
 D 1 
   1       1.2767950000     -1.0000000000
 D 1 
   1       0.5273386000      1.0000000000
 D 1 
   1       0.2184050000      1.0000000000
 F 2 
   1       3.1309344000     -1.0825667766
   2       1.0419780000      0.1809223232
 F 1 
   1       0.3559044000      1.0000000000
 G 1 
   1       8.7130110000      1.0000000000
 G 1 
   1       2.7493872000      1.0000000000
 G 1 
   1       0.8775089000      1.0000000000
  end;



           ************************************************************
           *        Program running with 4 parallel MPI-processes     *
           *              working on a common directory               *
           ************************************************************
------------------------------------------------------------------------------
                           ORCA GTO INTEGRAL CALCULATION
                           -- RI-GTO INTEGRALS CHOSEN --
------------------------------------------------------------------------------
------------------------------------------------------------------------------
                   ___                                                        
                  /   \      - P O W E R E D   B Y -                         
                 /     \                                                     
                 |  |  |   _    _      __       _____    __    __             
                 |  |  |  | |  | |    /  \     |  _  \  |  |  /  |          
                  \  \/   | |  | |   /    \    | | | |  |  | /  /          
                 / \  \   | |__| |  /  /\  \   | |_| |  |  |/  /          
                |  |  |   |  __  | /  /__\  \  |    /   |      \           
                |  |  |   | |  | | |   __   |  |    \   |  |\   \          
                \     /   | |  | | |  |  |  |  | |\  \  |  | \   \       
                 \___/    |_|  |_| |__|  |__|  |_| \__\ |__|  \__/        
                                                                              
                      - O R C A' S   B I G   F R I E N D -                    
                                      &                                       
                       - I N T E G R A L  F E E D E R -                       
                                                                              
 v1 FN, 2020, v2 2021                                                         
------------------------------------------------------------------------------


Reading SHARK input file input_34.SHARKINP.tmp ... ok
----------------------
SHARK INTEGRAL PACKAGE
----------------------

Number of atoms                             ...     24
Number of basis functions                   ...    353
Number of shells                            ...    179
Maximum angular momentum                    ...      3
Integral batch strategy                     ... SHARK/LIBINT Hybrid
RI-J (if used) integral strategy            ... SPLIT-RIJ (Revised 2003 algorithm where possible)
Printlevel                                  ...      1
Contraction scheme used                     ... SEGMENTED contraction
Coulomb Range Separation                    ... NOT USED
Exchange Range Separation                   ... NOT USED
Finite Nucleus Model                        ... NOT USED
Auxiliary Coulomb fitting basis             ... AVAILABLE
   # of basis functions in Aux-J            ...    768
   # of shells in Aux-J                     ...    256
   Maximum angular momentum in Aux-J        ...      4
Auxiliary J/K fitting basis                 ... NOT available
Auxiliary Correlation fitting basis         ... NOT available
Auxiliary 'external' fitting basis          ... NOT available
Integral threshold                          ...     1.000000e-10
Primitive cut-off                           ...     1.000000e-11
Primitive pair pre-selection threshold      ...     1.000000e-11

Calculating pre-screening integrals         ... done (  0.0 sec) Dimension = 179
Organizing shell pair data                  ... done (  0.1 sec)
Shell pair information
Total number of shell pairs                 ...     16110
Shell pairs after pre-screening             ...     11572
Total number of primitive shell pairs       ...     54315
Primitive shell pairs kept                  ...     25709
          la=0 lb=0:   3955 shell pairs
          la=1 lb=0:   4435 shell pairs
          la=1 lb=1:   1273 shell pairs
          la=2 lb=0:   1072 shell pairs
          la=2 lb=1:    612 shell pairs
          la=2 lb=2:     85 shell pairs
          la=3 lb=0:     77 shell pairs
          la=3 lb=1:     48 shell pairs
          la=3 lb=2:     14 shell pairs
          la=3 lb=3:      1 shell pairs

Calculating one electron integrals          ... done (  0.0 sec)
Calculating RI/J V-Matrix + Cholesky decomp.... done (  0.0 sec)
Calculating Nuclear repulsion               ... done (  0.0 sec) ENN=   1520.865788677901 Eh

SHARK setup successfully completed in   0.3 seconds

Maximum memory used throughout the entire GTOINT-calculation: 25.5 MB


           ************************************************************
           *        Program running with 4 parallel MPI-processes     *
           *              working on a common directory               *
           ************************************************************
-------------------------------------------------------------------------------
                                 ORCA SCF
-------------------------------------------------------------------------------

------------
SCF SETTINGS
------------
Hamiltonian:
 Density Functional     Method          .... DFT(GTOs)
 Exchange Functional    Exchange        .... B88
   X-Alpha parameter    XAlpha          ....  0.666667
   Becke's b parameter  XBeta           ....  0.004200
 Correlation Functional Correlation     .... LYP
 LDA part of GGA corr.  LDAOpt          .... VWN-5
 Gradients option       PostSCFGGA      .... off
 Hybrid DFT is turned on
   Fraction HF Exchange ScalHFX         ....  0.200000
   Scaling of DF-GGA-X  ScalDFX         ....  0.720000
   Scaling of DF-GGA-C  ScalDFC         ....  0.810000
   Scaling of DF-LDA-C  ScalLDAC        ....  1.000000
   Perturbative correction              ....  0.000000
   Density functional embedding theory  .... OFF
   NL short-range parameter             ....  4.800000
 RI-approximation to the Coulomb term is turned on
   Number of AuxJ basis functions       .... 768
   RIJ-COSX (HFX calculated with COS-X)).... on


General Settings:
 Integral files         IntName         .... input_34
 Hartree-Fock type      HFTyp           .... UHF
 Total Charge           Charge          ....   -2
 Multiplicity           Mult            ....    2
 Number of Electrons    NEL             ....  145
 Basis Dimension        Dim             ....  353
 Nuclear Repulsion      ENuc            ....   1520.8657886779 Eh

Convergence Acceleration:
 DIIS                   CNVDIIS         .... on
   Start iteration      DIISMaxIt       ....    12
   Startup error        DIISStart       ....  0.200000
   # of expansion vecs  DIISMaxEq       ....     5
   Bias factor          DIISBfac        ....   1.050
   Max. coefficient     DIISMaxC        ....  10.000
 Trust-Rad. Augm. Hess. CNVTRAH         .... auto
   Auto Start mean grad. ratio tolernc. ....  1.125000
   Auto Start start iteration           ....    20
   Auto Start num. interpolation iter.  ....    10
   Max. Number of Micro iterations      ....    16
   Max. Number of Macro iterations      .... Maxiter - #DIIS iter
   Number of Davidson start vectors     ....     2
   Converg. threshold I  (grad. norm)   ....   5.000e-05
   Converg. threshold II (energy diff.) ....   1.000e-06
   Grad. Scal. Fac. for Micro threshold ....   0.100
   Minimum threshold for Micro iter.    ....   0.010
   NR start threshold (gradient norm)   ....   0.001
   Initial trust radius                 ....   0.400
   Minimum AH scaling param. (alpha)    ....   1.000
   Maximum AH scaling param. (alpha)    .... 1000.000
   Orbital update algorithm             .... Taylor
   White noise on init. David. guess    .... on
   Maximum white noise                  ....   0.010
   Quad. conv. algorithm                .... NR
 SOSCF                  CNVSOSCF        .... off
 Level Shifting         CNVShift        .... on
   Level shift para.    LevelShift      ....    0.2500
   Turn off err/grad.   ShiftErr        ....    0.0010
 Zerner damping         CNVZerner       .... off
 Static damping         CNVDamp         .... on
   Fraction old density DampFac         ....    0.7000
   Max. Damping (<1)    DampMax         ....    0.9800
   Min. Damping (>=0)   DampMin         ....    0.0000
   Turn off err/grad.   DampErr         ....    0.1000
 Fernandez-Rico         CNVRico         .... off

SCF Procedure:
 Maximum # iterations   MaxIter         ....   125
 SCF integral mode      SCFMode         .... Direct
   Integral package                     .... SHARK and LIBINT hybrid scheme
 Reset frequency        DirectResetFreq ....    20
 Integral Threshold     Thresh          ....  1.000e-10 Eh
 Primitive CutOff       TCut            ....  1.000e-11 Eh

Convergence Tolerance:
 Convergence Check Mode ConvCheckMode   .... Total+1el-Energy
 Convergence forced     ConvForced      .... 0
 Energy Change          TolE            ....  1.000e-06 Eh
 1-El. energy change                    ....  1.000e-03 Eh
 DIIS Error             TolErr          ....  1.000e-06


Diagonalization of the overlap matrix:
Smallest eigenvalue                        ... 2.204e-04
Time for diagonalization                   ...    0.055 sec
Threshold for overlap eigenvalues          ... 1.000e-08
Number of eigenvalues below threshold      ... 0
Time for construction of square roots      ...    0.041 sec
Total time needed                          ...    0.096 sec

Time for model grid setup =    0.227 sec

------------------------------
INITIAL GUESS: MODEL POTENTIAL
------------------------------
Loading Hartree-Fock densities                     ... done
Calculating cut-offs                               ... done
Initializing the effective Hamiltonian             ... done
Setting up the integral package (SHARK)            ... done
Starting the Coulomb interaction                   ... done (   0.2 sec)
Reading the grid                                   ... done
Mapping shells                                     ... done
Starting the XC term evaluation                    ... done (   0.1 sec)
  promolecular density results
     # of electrons  =    142.997047415
     EX              =   -186.875719371
     EC              =     -5.515769023
     EX+EC           =   -192.391488394
Transforming the Hamiltonian                       ... done (   0.0 sec)
Diagonalizing the Hamiltonian                      ... done (   0.0 sec)
Back transforming the eigenvectors                 ... done (   0.0 sec)
Now organizing SCF variables                       ... done
                      ------------------
                      INITIAL GUESS DONE (   0.6 sec)
                      ------------------
-------------------
DFT GRID GENERATION
-------------------

General Integration Accuracy     IntAcc      ... 4.388
Radial Grid Type                 RadialGrid  ... OptM3 with GC (2021)
Angular Grid (max. ang.)         AngularGrid ... 4 (Lebedev-302)
Angular grid pruning method      GridPruning ... 4 (adaptive)
Weight generation scheme         WeightScheme... Becke
Basis function cutoff            BFCut       ... 1.0000e-10
Integration weight cutoff        WCut        ... 1.0000e-14
Angular grids for H and He will be reduced by one unit
Partially contracted basis set               ... off
Rotationally invariant grid construction     ... off

Total number of grid points                  ...   131044
Total number of batches                      ...     2058
Average number of points per batch           ...       63
Average number of grid points per atom       ...     5460
Time for grid setup =    1.054 sec

--------------------
COSX GRID GENERATION
--------------------

GRIDX 1
-------
General Integration Accuracy     IntAcc      ... 3.816
Radial Grid Type                 RadialGrid  ... OptM3 with GC (2021)
Angular Grid (max. ang.)         AngularGrid ... 1 (Lebedev-50)
Angular grid pruning method      GridPruning ... 4 (adaptive)
Weight generation scheme         WeightScheme... Becke
Basis function cutoff            BFCut       ... 1.0000e-10
Integration weight cutoff        WCut        ... 1.0000e-14
Angular grids for H and He will be reduced by one unit
Partially contracted basis set               ... on
Rotationally invariant grid construction     ... off

Total number of grid points                  ...    16436
Total number of batches                      ...      270
Average number of points per batch           ...       60
Average number of grid points per atom       ...      685
UseSFitting                                  ... on

GRIDX 2
-------
General Integration Accuracy     IntAcc      ... 4.020
Radial Grid Type                 RadialGrid  ... OptM3 with GC (2021)
Angular Grid (max. ang.)         AngularGrid ... 2 (Lebedev-110)
Angular grid pruning method      GridPruning ... 4 (adaptive)
Weight generation scheme         WeightScheme... Becke
Basis function cutoff            BFCut       ... 1.0000e-10
Integration weight cutoff        WCut        ... 1.0000e-14
Angular grids for H and He will be reduced by one unit
Partially contracted basis set               ... on
Rotationally invariant grid construction     ... off

Total number of grid points                  ...    34415
Total number of batches                      ...      550
Average number of points per batch           ...       62
Average number of grid points per atom       ...     1434
UseSFitting                                  ... on

GRIDX 3
-------
General Integration Accuracy     IntAcc      ... 4.338
Radial Grid Type                 RadialGrid  ... OptM3 with GC (2021)
Angular Grid (max. ang.)         AngularGrid ... 3 (Lebedev-194)
Angular grid pruning method      GridPruning ... 4 (adaptive)
Weight generation scheme         WeightScheme... Becke
Basis function cutoff            BFCut       ... 1.0000e-10
Integration weight cutoff        WCut        ... 1.0000e-14
Angular grids for H and He will be reduced by one unit
Partially contracted basis set               ... on
Rotationally invariant grid construction     ... off

Total number of grid points                  ...    77446
Total number of batches                      ...     1222
Average number of points per batch           ...       63
Average number of grid points per atom       ...     3227
UseSFitting                                  ... on

Time for X-Grid setup             =    1.042 sec

--------------
SCF ITERATIONS
--------------
ITER       Energy         Delta-E        Max-DP      RMS-DP      [F,P]     Damp
               ***  Starting incremental Fock matrix formation  ***
  0  -2846.9915078193   0.000000000000 0.09408716  0.00114591  0.2286769 0.7000
  1  -2847.2379050404  -0.246397221078 0.11820506  0.00113250  0.1559461 0.7000
                               ***Turning on DIIS***
  2  -2847.3786423709  -0.140737330570 0.06214863  0.00067130  0.1090654 0.7000
  3  -2847.4540959023  -0.075453531412 0.09007462  0.00095231  0.0771223 0.0000
  4  -2847.6314076453  -0.177311742949 0.06347736  0.00051252  0.0106412 0.0000
  5  -2847.6362897617  -0.004882116416 0.01084534  0.00013131  0.0115757 0.0000
  6  -2847.6373752893  -0.001085527572 0.00514957  0.00006486  0.0034452 0.0000
  7  -2847.6375902003  -0.000214911031 0.00276670  0.00003344  0.0013668 0.0000
  8  -2847.6376725384  -0.000082338107 0.00260129  0.00002627  0.0011790 0.0000
  9  -2847.6377249932  -0.000052454744 0.00302927  0.00004129  0.0007609 0.0000
               *** Restarting incremental Fock matrix formation ***
                                   *** Resetting DIIS ***
 10  -2847.6377839664  -0.000058973244 0.00108166  0.00001456  0.0004887 0.0000
 11  -2847.6377912566  -0.000007290178 0.00023875  0.00000327  0.0010360 0.0000
 12  -2847.6377978227  -0.000006566112 0.00047332  0.00000774  0.0002681 0.0000
 13  -2847.6378009927  -0.000003169983 0.00044862  0.00000645  0.0003729 0.0000
 14  -2847.6378047385  -0.000003745850 0.00031794  0.00000597  0.0001501 0.0000
 15  -2847.6378064296  -0.000001691124 0.00013371  0.00000183  0.0001035 0.0000
 16  -2847.6378065455  -0.000000115831 0.00008809  0.00000135  0.0000807 0.0000
 17  -2847.6378065875  -0.000000041981 0.00001668  0.00000036  0.0000130 0.0000
 18  -2847.6378065592   0.000000028266 0.00002273  0.00000032  0.0000419 0.0000
                 **** Energy Check signals convergence ****

               *****************************************************
               *                     SUCCESS                       *
               *           SCF CONVERGED AFTER  19 CYCLES          *
               *****************************************************

Old exchange energy                            =    -37.607752203 Eh
New exchange energy                            =    -37.607769553 Eh
Exchange energy change after final integration =     -0.000017350 Eh
Total energy after final integration           =  -2847.637823999 Eh
Final COS-X integration done in                =    11.102 sec

----------------
TOTAL SCF ENERGY
----------------

Total Energy       :        -2847.63782400 Eh          -77488.16461 eV

Components:
Nuclear Repulsion  :         1520.86578868 Eh           41384.86208 eV
Electronic Energy  :        -4368.50361268 Eh         -118873.02669 eV
One Electron Energy:        -6992.40174801 Eh         -190272.92485 eV
Two Electron Energy:         2623.89813533 Eh           71399.89816 eV
Max COSX asymmetry :            0.00000164 Eh               0.00004 eV

Virial components:
Potential Energy   :        -5688.79201263 Eh         -154799.90054 eV
Kinetic Energy     :         2841.15418863 Eh           77311.73593 eV
Virial Ratio       :            2.00228204


DFT components:
N(Alpha)           :       73.000013065454 electrons
N(Beta)            :       72.000012931014 electrons
N(Total)           :      145.000025996467 electrons
E(X)               :     -149.551852532830 Eh       
E(C)               :       -6.525847675378 Eh       
E(XC)              :     -156.077700208208 Eh       
DFET-embed. en.    :        0.000000000000 Eh       

---------------
SCF CONVERGENCE
---------------

  Last Energy change         ...   -8.9250e-08  Tolerance :   1.0000e-06
  Last MAX-Density change    ...    0.0000e+00  Tolerance :   1.0000e-05
  Last RMS-Density change    ...    0.0000e+00  Tolerance :   1.0000e-06
  Last DIIS Error            ...    6.2203e-06  Tolerance :   1.0000e-06

             **** THE GBW FILE WAS UPDATED (input_34.gbw) ****
             **** DENSITY input_34.scfp WAS UPDATED ****
             **** ENERGY FILE WAS UPDATED (input_34.en.tmp) ****
----------------------
UHF SPIN CONTAMINATION
----------------------

Warning: in a DFT calculation there is little theoretical justification to 
         calculate <S**2> as in Hartree-Fock theory. We will do it anyways
         but you should keep in mind that the values have only limited relevance

Expectation value of <S**2>     :     0.764950
Ideal value S*(S+1) for S=0.5   :     0.750000
Deviation                       :     0.014950

             **** THE GBW FILE WAS UPDATED (input_34.gbw) ****
             **** DENSITY input_34.scfp WAS UPDATED ****
----------------
ORBITAL ENERGIES
----------------
                 SPIN UP ORBITALS
  NO   OCC          E(Eh)            E(eV) 
   0   1.0000    -196.606156     -5349.9255 
   1   1.0000     -88.560997     -2409.8673 
   2   1.0000     -88.560545     -2409.8549 
   3   1.0000     -88.558302     -2409.7939 
   4   1.0000     -88.556709     -2409.7506 
   5   1.0000     -21.981471      -598.1462 
   6   1.0000     -18.825674      -512.2726 
   7   1.0000     -18.489227      -503.1174 
   8   1.0000     -18.482094      -502.9233 
   9   1.0000     -18.482013      -502.9211 
  10   1.0000      -9.948775      -270.7199 
  11   1.0000      -9.935395      -270.3559 
  12   1.0000      -9.932638      -270.2808 
  13   1.0000      -9.932193      -270.2687 
  14   1.0000      -9.931436      -270.2481 
  15   1.0000      -9.929715      -270.2013 
  16   1.0000      -7.615283      -207.2224 
  17   1.0000      -7.615254      -207.2216 
  18   1.0000      -7.611716      -207.1253 
  19   1.0000      -7.610970      -207.1050 
  20   1.0000      -5.580464      -151.8521 
  21   1.0000      -5.580450      -151.8518 
  22   1.0000      -5.577225      -151.7640 
  23   1.0000      -5.576230      -151.7369 
  24   1.0000      -5.574271      -151.6836 
  25   1.0000      -5.574197      -151.6816 
  26   1.0000      -5.572495      -151.6353 
  27   1.0000      -5.572359      -151.6316 
  28   1.0000      -5.570901      -151.5919 
  29   1.0000      -5.570200      -151.5729 
  30   1.0000      -5.568598      -151.5293 
  31   1.0000      -5.568026      -151.5137 
  32   1.0000      -2.374616       -64.6166 
  33   1.0000      -1.418173       -38.5905 
  34   1.0000      -1.402672       -38.1686 
  35   1.0000      -1.402101       -38.1531 
  36   1.0000      -0.589005       -16.0277 
  37   1.0000      -0.581488       -15.8231 
  38   1.0000      -0.550770       -14.9872 
  39   1.0000      -0.474631       -12.9154 
  40   1.0000      -0.465736       -12.6733 
  41   1.0000      -0.401990       -10.9387 
  42   1.0000      -0.391317       -10.6483 
  43   1.0000      -0.336189        -9.1482 
  44   1.0000      -0.320690        -8.7264 
  45   1.0000      -0.298621        -8.1259 
  46   1.0000      -0.285285        -7.7630 
  47   1.0000      -0.225959        -6.1487 
  48   1.0000      -0.213871        -5.8197 
  49   1.0000      -0.206206        -5.6112 
  50   1.0000      -0.202274        -5.5042 
  51   1.0000      -0.159270        -4.3340 
  52   1.0000      -0.138536        -3.7698 
  53   1.0000      -0.133688        -3.6378 
  54   1.0000      -0.130053        -3.5389 
  55   1.0000      -0.107246        -2.9183 
  56   1.0000      -0.084012        -2.2861 
  57   1.0000      -0.072229        -1.9654 
  58   1.0000      -0.068415        -1.8617 
  59   1.0000      -0.065547        -1.7836 
  60   1.0000      -0.057183        -1.5560 
  61   1.0000      -0.047630        -1.2961 
  62   1.0000      -0.039715        -1.0807 
  63   1.0000      -0.027364        -0.7446 
  64   1.0000       0.002335         0.0635 
  65   1.0000       0.028044         0.7631 
  66   1.0000       0.029640         0.8065 
  67   1.0000       0.040472         1.1013 
  68   1.0000       0.045427         1.2361 
  69   1.0000       0.053901         1.4667 
  70   1.0000       0.065662         1.7867 
  71   1.0000       0.074217         2.0196 
  72   1.0000       0.081500         2.2177 
  73   0.0000       0.235999         6.4218 
  74   0.0000       0.244698         6.6586 
  75   0.0000       0.248112         6.7515 
  76   0.0000       0.249778         6.7968 
  77   0.0000       0.259063         7.0495 
  78   0.0000       0.264734         7.2038 
  79   0.0000       0.274548         7.4708 
  80   0.0000       0.278741         7.5849 
  81   0.0000       0.293346         7.9823 
  82   0.0000       0.294650         8.0178 
  83   0.0000       0.302040         8.2189 
  84   0.0000       0.303852         8.2682 
  85   0.0000       0.304571         8.2878 
  86   0.0000       0.317135         8.6297 
  87   0.0000       0.327561         8.9134 
  88   0.0000       0.331169         9.0116 
  89   0.0000       0.338135         9.2011 
  90   0.0000       0.343336         9.3426 
  91   0.0000       0.358827         9.7642 
  92   0.0000       0.363024         9.8784 
  93   0.0000       0.367067         9.9884 
  94   0.0000       0.379500        10.3267 
  95   0.0000       0.399856        10.8806 
  96   0.0000       0.403711        10.9855 
  97   0.0000       0.414992        11.2925 
  98   0.0000       0.420960        11.4549 
  99   0.0000       0.430576        11.7166 
 100   0.0000       0.434520        11.8239 
 101   0.0000       0.442333        12.0365 
 102   0.0000       0.449262        12.2250 
 103   0.0000       0.460566        12.5326 
 104   0.0000       0.464411        12.6373 
 105   0.0000       0.470540        12.8040 
 106   0.0000       0.482867        13.1395 
 107   0.0000       0.486074        13.2267 
 108   0.0000       0.497690        13.5428 
 109   0.0000       0.506351        13.7785 
 110   0.0000       0.523110        14.2345 
 111   0.0000       0.530829        14.4446 
 112   0.0000       0.536793        14.6069 
 113   0.0000       0.541032        14.7222 
 114   0.0000       0.547052        14.8861 
 115   0.0000       0.555669        15.1205 
 116   0.0000       0.576445        15.6859 
 117   0.0000       0.580612        15.7993 
 118   0.0000       0.584308        15.8998 
 119   0.0000       0.590372        16.0648 
 120   0.0000       0.597284        16.2529 
 121   0.0000       0.609259        16.5788 
 122   0.0000       0.615223        16.7411 
 123   0.0000       0.616890        16.7864 
 124   0.0000       0.632739        17.2177 
 125   0.0000       0.636394        17.3171 
 126   0.0000       0.637924        17.3588 
 127   0.0000       0.650521        17.7016 
 128   0.0000       0.657193        17.8831 
 129   0.0000       0.663068        18.0430 
 130   0.0000       0.664245        18.0750 
 131   0.0000       0.672367        18.2960 
 132   0.0000       0.677536        18.4367 
 133   0.0000       0.682067        18.5600 
 134   0.0000       0.682673        18.5765 
 135   0.0000       0.692551        18.8453 
 136   0.0000       0.698700        19.0126 
 137   0.0000       0.702039        19.1035 
 138   0.0000       0.715042        19.4573 
 139   0.0000       0.716660        19.5013 
 140   0.0000       0.722814        19.6688 
 141   0.0000       0.726378        19.7657 
 142   0.0000       0.745718        20.2920 
 143   0.0000       0.757370        20.6091 
 144   0.0000       0.766001        20.8439 
 145   0.0000       0.775910        21.1136 
 146   0.0000       0.784973        21.3602 
 147   0.0000       0.802782        21.8448 
 148   0.0000       0.816785        22.2259 
 149   0.0000       0.827661        22.5218 
 150   0.0000       0.845861        23.0171 
 151   0.0000       0.858419        23.3588 
 152   0.0000       0.872526        23.7426 
 153   0.0000       0.877214        23.8702 
 154   0.0000       0.889915        24.2158 
 155   0.0000       0.921996        25.0888 
 156   0.0000       0.932210        25.3667 
 157   0.0000       0.955662        26.0049 
 158   0.0000       0.989743        26.9323 
 159   0.0000       0.999960        27.2103 
 160   0.0000       1.003156        27.2973 
 161   0.0000       1.006480        27.3877 
 162   0.0000       1.017609        27.6905 
 163   0.0000       1.034239        28.1431 
 164   0.0000       1.043991        28.4085 
 165   0.0000       1.052510        28.6402 
 166   0.0000       1.069477        29.1019 
 167   0.0000       1.081475        29.4284 
 168   0.0000       1.090022        29.6610 
 169   0.0000       1.115946        30.3664 
 170   0.0000       1.130381        30.7592 
 171   0.0000       1.141829        31.0707 
 172   0.0000       1.154660        31.4199 
 173   0.0000       1.164066        31.6759 
 174   0.0000       1.179032        32.0831 
 175   0.0000       1.198003        32.5993 
 176   0.0000       1.241629        33.7865 
 177   0.0000       1.255087        34.1527 
 178   0.0000       1.282187        34.8901 
 179   0.0000       1.306997        35.5652 
 180   0.0000       1.333571        36.2883 
 181   0.0000       1.346189        36.6317 
 182   0.0000       1.374311        37.3969 
 183   0.0000       1.380618        37.5685 
 184   0.0000       1.433409        39.0050 
 185   0.0000       1.442705        39.2580 
 186   0.0000       1.450372        39.4666 
 187   0.0000       1.456087        39.6221 
 188   0.0000       1.475884        40.1608 
 189   0.0000       1.488782        40.5118 
 190   0.0000       1.524555        41.4853 
 191   0.0000       1.526302        41.5328 
 192   0.0000       1.536766        41.8175 
 193   0.0000       1.552422        42.2436 
 194   0.0000       1.555598        42.3300 
 195   0.0000       1.566279        42.6206 
 196   0.0000       1.575098        42.8606 
 197   0.0000       1.585423        43.1415 
 198   0.0000       1.587586        43.2004 
 199   0.0000       1.628990        44.3271 
 200   0.0000       1.637162        44.5494 
 201   0.0000       1.640155        44.6309 
 202   0.0000       1.653226        44.9866 
 203   0.0000       1.664599        45.2960 
 204   0.0000       1.694236        46.1025 
 205   0.0000       1.700942        46.2850 
 206   0.0000       1.706615        46.4394 
 207   0.0000       1.724498        46.9260 
 208   0.0000       1.728957        47.0473 
 209   0.0000       1.730981        47.1024 
 210   0.0000       1.746211        47.5168 
 211   0.0000       1.753385        47.7120 
 212   0.0000       1.792442        48.7748 
 213   0.0000       1.804268        49.0966 
 214   0.0000       1.809942        49.2510 
 215   0.0000       1.820665        49.5428 
 216   0.0000       1.849819        50.3361 
 217   0.0000       1.860665        50.6313 
 218   0.0000       1.872604        50.9562 
 219   0.0000       1.914000        52.0826 
 220   0.0000       1.925987        52.4088 
 221   0.0000       1.933323        52.6084 
 222   0.0000       1.936280        52.6889 
 223   0.0000       1.951845        53.1124 
 224   0.0000       1.984072        53.9894 
 225   0.0000       1.993626        54.2493 
 226   0.0000       1.998497        54.3819 
 227   0.0000       2.005705        54.5780 
 228   0.0000       2.040360        55.5210 
 229   0.0000       2.045932        55.6726 
 230   0.0000       2.051615        55.8273 
 231   0.0000       2.060823        56.0778 
 232   0.0000       2.072200        56.3874 
 233   0.0000       2.082865        56.6776 
 234   0.0000       2.093522        56.9676 
 235   0.0000       2.103733        57.2455 
 236   0.0000       2.128176        57.9106 
 237   0.0000       2.141621        58.2765 
 238   0.0000       2.157980        58.7216 
 239   0.0000       2.169471        59.0343 
 240   0.0000       2.202116        59.9226 
 241   0.0000       2.206934        60.0537 
 242   0.0000       2.225507        60.5591 
 243   0.0000       2.245710        61.1089 
 244   0.0000       2.258946        61.4690 
 245   0.0000       2.272813        61.8464 
 246   0.0000       2.291826        62.3637 
 247   0.0000       2.304842        62.7179 
 248   0.0000       2.312572        62.9283 
 249   0.0000       2.341600        63.7182 
 250   0.0000       2.351143        63.9779 
 251   0.0000       2.375830        64.6496 
 252   0.0000       2.386362        64.9362 
 253   0.0000       2.392792        65.1112 
 254   0.0000       2.410306        65.5878 
 255   0.0000       2.443584        66.4933 
 256   0.0000       2.448208        66.6191 
 257   0.0000       2.473700        67.3128 
 258   0.0000       2.497992        67.9738 
 259   0.0000       2.521882        68.6239 
 260   0.0000       2.538410        69.0737 
 261   0.0000       2.553441        69.4827 
 262   0.0000       2.557258        69.5865 
 263   0.0000       2.593574        70.5747 
 264   0.0000       2.605364        70.8956 
 265   0.0000       2.617412        71.2234 
 266   0.0000       2.623607        71.3920 
 267   0.0000       2.638967        71.8099 
 268   0.0000       2.672789        72.7303 
 269   0.0000       2.681725        72.9735 
 270   0.0000       2.706435        73.6458 
 271   0.0000       2.767186        75.2990 
 272   0.0000       2.774939        75.5099 
 273   0.0000       2.802392        76.2570 
 274   0.0000       2.827648        76.9442 
 275   0.0000       2.846396        77.4544 
 276   0.0000       2.872013        78.1514 
 277   0.0000       2.875112        78.2358 
 278   0.0000       2.895274        78.7844 
 279   0.0000       2.901065        78.9420 
 280   0.0000       2.919090        79.4325 
 281   0.0000       2.929625        79.7191 
 282   0.0000       2.937512        79.9338 
 283   0.0000       2.943630        80.1002 
 284   0.0000       2.951802        80.3226 
 285   0.0000       2.959201        80.5240 
 286   0.0000       2.976579        80.9968 
 287   0.0000       2.985274        81.2334 
 288   0.0000       3.001505        81.6751 
 289   0.0000       3.025537        82.3291 
 290   0.0000       3.037320        82.6497 
 291   0.0000       3.043856        82.8275 
 292   0.0000       3.050381        83.0051 
 293   0.0000       3.071854        83.5894 
 294   0.0000       3.086468        83.9871 
 295   0.0000       3.107997        84.5729 
 296   0.0000       3.146762        85.6277 
 297   0.0000       3.189148        86.7811 
 298   0.0000       3.275416        89.1286 
 299   0.0000       3.361592        91.4736 
 300   0.0000       3.398529        92.4787 
 301   0.0000       3.423394        93.1553 
 302   0.0000       3.454445        94.0002 
 303   0.0000       3.497917        95.1832 
 304   0.0000       3.552576        96.6705 
 305   0.0000       3.562060        96.9286 
 306   0.0000       3.584645        97.5432 
 307   0.0000       3.606591        98.1403 
 308   0.0000       3.613793        98.3363 
 309   0.0000       3.649365        99.3043 
 310   0.0000       3.662622        99.6650 
 311   0.0000       3.663981        99.7020 
 312   0.0000       3.674493        99.9880 
 313   0.0000       3.870652       105.3258 
 314   0.0000       3.888318       105.8065 
 315   0.0000       3.925665       106.8228 
 316   0.0000       4.045454       110.0824 
 317   0.0000       4.264902       116.0539 
 318   0.0000       4.578448       124.5859 
 319   0.0000       4.594720       125.0287 
 320   0.0000       4.597512       125.1047 
 321   0.0000       4.619521       125.7036 
 322   0.0000       4.653069       126.6164 
 323   0.0000       4.653452       126.6269 
 324   0.0000       5.250358       142.8695 
 325   0.0000       7.040694       191.5870 
 326   0.0000       7.100613       193.2175 
 327   0.0000       7.162238       194.8944 
 328   0.0000      18.839948       512.6610 
 329   0.0000      18.882217       513.8112 
 330   0.0000      19.008457       517.2464 
 331   0.0000      19.055352       518.5225 
 332   0.0000      19.842233       539.9346 
 333   0.0000      22.103095       601.4558 
 334   0.0000      22.189976       603.8199 
 335   0.0000      22.204821       604.2239 
 336   0.0000      22.264180       605.8391 
 337   0.0000      22.367959       608.6631 
 338   0.0000      22.588189       614.6559 
 339   0.0000      43.715492      1189.5590 
 340   0.0000     128.777813      3504.2224 
 341   0.0000     158.426407      4311.0017 
 342   0.0000     158.478831      4312.4282 
 343   0.0000     158.516008      4313.4399 
 344   0.0000     555.931017     15127.6520 
 345   0.0000    1893.329816     51520.1235 
 346   0.0000    6235.837141    169685.7553 
 347   0.0000   22016.262433    599092.9581 
 348   0.0000   90690.810275   2467822.4093 
 349   0.0000   462517.548431   12585742.3396 
 350   0.0000   1711386.103207   46569183.3998 
 351   0.0000   5079093.307044   138209155.3023 
 352   0.0000   14523636.822632   395208249.9430 

                 SPIN DOWN ORBITALS
  NO   OCC          E(Eh)            E(eV) 
   0   1.0000    -196.606299     -5349.9294 
   1   1.0000     -88.561154     -2409.8715 
   2   1.0000     -88.560706     -2409.8593 
   3   1.0000     -88.558424     -2409.7972 
   4   1.0000     -88.556686     -2409.7499 
   5   1.0000     -21.966501      -597.7389 
   6   1.0000     -18.829056      -512.3647 
   7   1.0000     -18.484096      -502.9778 
   8   1.0000     -18.466032      -502.4863 
   9   1.0000     -18.465682      -502.4768 
  10   1.0000      -9.948638      -270.7162 
  11   1.0000      -9.935219      -270.3510 
  12   1.0000      -9.932427      -270.2751 
  13   1.0000      -9.932134      -270.2671 
  14   1.0000      -9.931394      -270.2470 
  15   1.0000      -9.929738      -270.2019 
  16   1.0000      -7.615432      -207.2264 
  17   1.0000      -7.615412      -207.2259 
  18   1.0000      -7.611831      -207.1285 
  19   1.0000      -7.610950      -207.1045 
  20   1.0000      -5.580614      -151.8562 
  21   1.0000      -5.580597      -151.8558 
  22   1.0000      -5.577383      -151.7683 
  23   1.0000      -5.576249      -151.7375 
  24   1.0000      -5.574692      -151.6951 
  25   1.0000      -5.574612      -151.6929 
  26   1.0000      -5.572606      -151.6383 
  27   1.0000      -5.572485      -151.6350 
  28   1.0000      -5.571306      -151.6030 
  29   1.0000      -5.570536      -151.5820 
  30   1.0000      -5.568569      -151.5285 
  31   1.0000      -5.567574      -151.5014 
  32   1.0000      -2.329935       -63.4008 
  33   1.0000      -1.399483       -38.0819 
  34   1.0000      -1.341105       -36.4933 
  35   1.0000      -1.339568       -36.4515 
  36   1.0000      -0.596039       -16.2190 
  37   1.0000      -0.581445       -15.8219 
  38   1.0000      -0.550614       -14.9830 
  39   1.0000      -0.474695       -12.9171 
  40   1.0000      -0.465619       -12.6701 
  41   1.0000      -0.401952       -10.9377 
  42   1.0000      -0.391446       -10.6518 
  43   1.0000      -0.336329        -9.1520 
  44   1.0000      -0.321060        -8.7365 
  45   1.0000      -0.298543        -8.1238 
  46   1.0000      -0.285289        -7.7631 
  47   1.0000      -0.225897        -6.1470 
  48   1.0000      -0.213818        -5.8183 
  49   1.0000      -0.206012        -5.6059 
  50   1.0000      -0.202182        -5.5016 
  51   1.0000      -0.159146        -4.3306 
  52   1.0000      -0.138321        -3.7639 
  53   1.0000      -0.133558        -3.6343 
  54   1.0000      -0.129817        -3.5325 
  55   1.0000      -0.107181        -2.9165 
  56   1.0000      -0.082851        -2.2545 
  57   1.0000      -0.071522        -1.9462 
  58   1.0000      -0.066419        -1.8074 
  59   1.0000      -0.064582        -1.7574 
  60   1.0000      -0.057718        -1.5706 
  61   1.0000      -0.049146        -1.3373 
  62   1.0000      -0.041138        -1.1194 
  63   1.0000      -0.026680        -0.7260 
  64   1.0000       0.007826         0.2129 
  65   1.0000       0.029417         0.8005 
  66   1.0000       0.033011         0.8983 
  67   1.0000       0.045054         1.2260 
  68   1.0000       0.048497         1.3197 
  69   1.0000       0.062078         1.6892 
  70   1.0000       0.069104         1.8804 
  71   1.0000       0.076419         2.0795 
  72   0.0000       0.232300         6.3212 
  73   0.0000       0.247881         6.7452 
  74   0.0000       0.252502         6.8709 
  75   0.0000       0.260685         7.0936 
  76   0.0000       0.265249         7.2178 
  77   0.0000       0.267556         7.2806 
  78   0.0000       0.272843         7.4244 
  79   0.0000       0.279345         7.6014 
  80   0.0000       0.281242         7.6530 
  81   0.0000       0.294426         8.0117 
  82   0.0000       0.296029         8.0554 
  83   0.0000       0.302143         8.2217 
  84   0.0000       0.304740         8.2924 
  85   0.0000       0.308241         8.3877 
  86   0.0000       0.319402         8.6914 
  87   0.0000       0.328174         8.9301 
  88   0.0000       0.331729         9.0268 
  89   0.0000       0.338898         9.2219 
  90   0.0000       0.343644         9.3510 
  91   0.0000       0.358976         9.7682 
  92   0.0000       0.363221         9.8837 
  93   0.0000       0.368165        10.0183 
  94   0.0000       0.380790        10.3618 
  95   0.0000       0.401409        10.9229 
  96   0.0000       0.405085        11.0229 
  97   0.0000       0.416509        11.3338 
  98   0.0000       0.422877        11.5071 
  99   0.0000       0.430804        11.7228 
 100   0.0000       0.435084        11.8392 
 101   0.0000       0.442854        12.0507 
 102   0.0000       0.449897        12.2423 
 103   0.0000       0.461188        12.5496 
 104   0.0000       0.465328        12.6622 
 105   0.0000       0.471517        12.8306 
 106   0.0000       0.483651        13.1608 
 107   0.0000       0.487884        13.2760 
 108   0.0000       0.498465        13.5639 
 109   0.0000       0.508018        13.8239 
 110   0.0000       0.524697        14.2777 
 111   0.0000       0.533555        14.5188 
 112   0.0000       0.537219        14.6185 
 113   0.0000       0.543598        14.7921 
 114   0.0000       0.548685        14.9305 
 115   0.0000       0.558049        15.1853 
 116   0.0000       0.576995        15.7008 
 117   0.0000       0.581125        15.8132 
 118   0.0000       0.586242        15.9524 
 119   0.0000       0.591128        16.0854 
 120   0.0000       0.597994        16.2723 
 121   0.0000       0.610184        16.6040 
 122   0.0000       0.616711        16.7816 
 123   0.0000       0.617813        16.8115 
 124   0.0000       0.633530        17.2392 
 125   0.0000       0.637135        17.3373 
 126   0.0000       0.637985        17.3604 
 127   0.0000       0.651352        17.7242 
 128   0.0000       0.657672        17.8962 
 129   0.0000       0.663241        18.0477 
 130   0.0000       0.665359        18.1053 
 131   0.0000       0.672726        18.3058 
 132   0.0000       0.678578        18.4651 
 133   0.0000       0.682213        18.5640 
 134   0.0000       0.683090        18.5878 
 135   0.0000       0.694013        18.8850 
 136   0.0000       0.699101        19.0235 
 137   0.0000       0.703784        19.1509 
 138   0.0000       0.715656        19.4740 
 139   0.0000       0.717154        19.5148 
 140   0.0000       0.722993        19.6736 
 141   0.0000       0.726832        19.7781 
 142   0.0000       0.745788        20.2939 
 143   0.0000       0.757705        20.6182 
 144   0.0000       0.767047        20.8724 
 145   0.0000       0.776167        21.1206 
 146   0.0000       0.786091        21.3906 
 147   0.0000       0.803922        21.8758 
 148   0.0000       0.816645        22.2221 
 149   0.0000       0.828631        22.5482 
 150   0.0000       0.845954        23.0196 
 151   0.0000       0.859860        23.3980 
 152   0.0000       0.872151        23.7324 
 153   0.0000       0.876387        23.8477 
 154   0.0000       0.891905        24.2700 
 155   0.0000       0.922526        25.1032 
 156   0.0000       0.934296        25.4235 
 157   0.0000       0.956784        26.0354 
 158   0.0000       0.991003        26.9666 
 159   0.0000       1.000330        27.2204 
 160   0.0000       1.003308        27.3014 
 161   0.0000       1.007818        27.4241 
 162   0.0000       1.018322        27.7100 
 163   0.0000       1.034956        28.1626 
 164   0.0000       1.044142        28.4125 
 165   0.0000       1.053179        28.6585 
 166   0.0000       1.071264        29.1506 
 167   0.0000       1.081911        29.4403 
 168   0.0000       1.092645        29.7324 
 169   0.0000       1.117279        30.4027 
 170   0.0000       1.130595        30.7651 
 171   0.0000       1.146467        31.1969 
 172   0.0000       1.157985        31.5104 
 173   0.0000       1.166267        31.7357 
 174   0.0000       1.180415        32.1207 
 175   0.0000       1.199198        32.6318 
 176   0.0000       1.244066        33.8528 
 177   0.0000       1.270320        34.5672 
 178   0.0000       1.284842        34.9623 
 179   0.0000       1.309216        35.6256 
 180   0.0000       1.334995        36.3271 
 181   0.0000       1.349873        36.7319 
 182   0.0000       1.376870        37.4665 
 183   0.0000       1.390811        37.8459 
 184   0.0000       1.434198        39.0265 
 185   0.0000       1.446606        39.3641 
 186   0.0000       1.451780        39.5049 
 187   0.0000       1.457292        39.6549 
 188   0.0000       1.476855        40.1873 
 189   0.0000       1.489511        40.5316 
 190   0.0000       1.525519        41.5115 
 191   0.0000       1.527653        41.5695 
 192   0.0000       1.537532        41.8384 
 193   0.0000       1.552884        42.2561 
 194   0.0000       1.555858        42.3371 
 195   0.0000       1.566678        42.6315 
 196   0.0000       1.575994        42.8850 
 197   0.0000       1.585589        43.1461 
 198   0.0000       1.587823        43.2069 
 199   0.0000       1.629406        44.3384 
 200   0.0000       1.637623        44.5620 
 201   0.0000       1.640597        44.6429 
 202   0.0000       1.653708        44.9997 
 203   0.0000       1.665349        45.3164 
 204   0.0000       1.695531        46.1377 
 205   0.0000       1.701544        46.3014 
 206   0.0000       1.714723        46.6600 
 207   0.0000       1.725908        46.9643 
 208   0.0000       1.730609        47.0923 
 209   0.0000       1.733224        47.1634 
 210   0.0000       1.747762        47.5590 
 211   0.0000       1.761555        47.9343 
 212   0.0000       1.797164        48.9033 
 213   0.0000       1.807222        49.1770 
 214   0.0000       1.812027        49.3078 
 215   0.0000       1.823822        49.6287 
 216   0.0000       1.850246        50.3477 
 217   0.0000       1.861017        50.6409 
 218   0.0000       1.874733        51.0141 
 219   0.0000       1.914469        52.0953 
 220   0.0000       1.927442        52.4484 
[...]
Average number of points per batch           ...       59
Average number of grid points per atom       ...      425

Memory available               ... 902.1 MB
Memory needed per perturbation ...  15.7 MB
Perturbations treated per batch... 3
Number of batches              ... 1
     CP-SCF ITERATION   0:   4.2796e-02 (   2.5 sec   0/  3 done)
     CP-SCF ITERATION   1:   2.6076e-03 (   2.6 sec   0/  3 done)
     CP-SCF ITERATION   2:   9.0375e-04 (   2.6 sec   3/  3 done)
                    *** THE CP-SCF HAS CONVERGED ***

Forming final perturbed densities           ... done
Transforming perturbed density to AO basis  ... done

 Raw HFC matrix (all values in MHz): 
 -----------------------------------
                -1.2408              -0.1732              -1.5280
                -0.1724              -2.5277               0.1063
                -1.5258               0.1160              -0.5409

 A(FC)          -1.4400              -1.4400              -1.4400
 A(SD)           2.1369              -0.9883              -1.1486
 A(ORB+DIA)     -0.0095               0.0074               0.0126    A(PC) =   0.0035
 A(ORB)         -0.0100               0.0077               0.0128    A(PC) =   0.0035
 A(DIA)          0.0004              -0.0003              -0.0002    A(PC) =  -0.0000
             ----------           ----------           ----------
 A(Tot)          0.6874              -2.4209              -2.5759    A(iso)=   -1.4365
 Orientation: 
  X          -0.6230916           -0.6636197           -0.4139634
  Y           0.0579130            0.4886671           -0.8705461
  Z           0.7800019           -0.5664038           -0.2660522

Notes:  (1) The A matrix conforms to the "SAI" spin Hamiltonian convention.
        (2) Tensor is right-handed.

 Raw EFG matrix (all values in a.u.**-3):
 -----------------------------------
             0.1062      -0.1327      -0.1738
            -0.1327      -0.0804       0.0881
            -0.1738       0.0881      -0.0258

 V(El)       0.5856       0.7964      -1.3820
 V(Nuc)     -0.7297      -0.9462       1.6759
         ----------   ----------   ----------
 V(Tot)     -0.1441      -0.1498       0.2939 
 Orientation: 
  X      -0.3059036    0.5749191    0.7588748
  Y       0.4910994    0.7781433   -0.3915539
  Z      -0.8156251    0.2529053   -0.5203792

Note: Tensor is right-handed


 Quadrupole tensor eigenvalues (in MHz;Q= 0.0029 I=  1.0)
  e**2qQ            =     0.197338 MHz 
  e**2qQ/(4I*(2I-1))=     0.049334 MHz 
  eta               =     0.019514
  NOTE: the diagonal representation of the SH term I*Q*I = e**2qQ/(4I(2I-1))*[-(1-eta),-(1+eta),2]

 RHO(0)=      0.448298900 a.u.**-3

 -----------------------------------------------------------
 Nucleus  23H : A:ISTP=    1 I=  0.5 P=533.5514 MHz/au**3
                Q:ISTP=    2 I=  1.0 Q=  0.0029 barn     
 -----------------------------------------------------------
 Solving for nuclear perturbation:
Forming RHS of the CP-SCF equations         ... 
Calc. nucleus orbit integrals (SHARK)       ... done

------------------------------------------------------------------------------
                           ORCA CP-SCF CALCULATION
------------------------------------------------------------------------------

Input orbitals are from        ... input_34.gbw
Input Perturbation             ... input_34.pin.tmp
Wavefunction output            ... input_34.pout.tmp
Perturbation mode              ... Imaginary perturbation
Solver                         ... POPLE
Max. number of iterations      ... 64
Convergence tolerance          ... 1.000e-03
Integral handling              ... Direct
DFT GridXC                     ... 1
COSX GridX                     ... 1
COSX IntAccX                   ... 3.067
COSX Algorithm                 ... Auto
Number of perturbations        ... 3
Number of operators            ... 2
Orbital ranges used for CP-SCF:
 Operator 0:  Orbitals   0... 72  to  73...352
 Operator 1:  Orbitals   0... 71  to  72...352
Variables per perturbation     ... 40672
DFT calculation                         ... on
XC functional terms                     ... off
Hybrid DFT                              ... on
   Exchange mixing (SCF)                ...  0.200
   Exchange mixing (CP-SCF)             ...  0.200
   GGA exch. scaling(SCF)               ...  0.720
   GGA exch. scaling (CP-SCF)           ...  0.720
   GGA corr. scaling (SCF)              ...  0.810
   GGA corr. scaling (CP-SCF)           ...  0.810

CP-SCF GRID
-----------

General Integration Accuracy     IntAcc      ... 3.467
Radial Grid Type                 RadialGrid  ... OptM3 with GC (2021)
Angular Grid (max. ang.)         AngularGrid ... 1 (Lebedev-50)
Angular grid pruning method      GridPruning ... 4 (adaptive)
Weight generation scheme         WeightScheme... Becke
Basis function cutoff            BFCut       ... 1.0000e-10
Integration weight cutoff        WCut        ... 1.0000e-14
Angular grids for H and He will be reduced by one unit
Partially contracted basis set               ... off
Rotationally invariant grid construction     ... off

Total number of grid points                  ...    23543
Total number of batches                      ...      383
Average number of points per batch           ...       61
Average number of grid points per atom       ...      981

CP-SCF GRIDX
------------

General Integration Accuracy     IntAcc      ... 3.067
Radial Grid Type                 RadialGrid  ... OptM3 with GC (2021)
Angular Grid (max. ang.)         AngularGrid ... 1 (Lebedev-50)
Angular grid pruning method      GridPruning ... 4 (adaptive)
Weight generation scheme         WeightScheme... Becke
Basis function cutoff            BFCut       ... 1.0000e-10
Integration weight cutoff        WCut        ... 1.0000e-14
Angular grids for H and He will be reduced by one unit
Partially contracted basis set               ... on
Rotationally invariant grid construction     ... off

Total number of grid points                  ...    10195
Total number of batches                      ...      170
Average number of points per batch           ...       59
Average number of grid points per atom       ...      425

Memory available               ... 900.2 MB
Memory needed per perturbation ...  15.7 MB
Perturbations treated per batch... 3
Number of batches              ... 1
     CP-SCF ITERATION   0:   4.7485e-02 (   2.6 sec   0/  3 done)
     CP-SCF ITERATION   1:   5.8006e-03 (   2.6 sec   0/  3 done)
     CP-SCF ITERATION   2:   1.2697e-03 (   2.6 sec   0/  3 done)
     CP-SCF ITERATION   3:   1.7748e-04 (   2.6 sec   3/  3 done)
                    *** THE CP-SCF HAS CONVERGED ***

Forming final perturbed densities           ... done
Transforming perturbed density to AO basis  ... done

 Raw HFC matrix (all values in MHz): 
 -----------------------------------
                 1.3665               1.3995              -3.1910
                 1.3946              -1.3057              -1.1212
                -3.2095              -1.1238               1.1533

 A(FC)           0.4000               0.4000               0.4000
 A(SD)          -2.1445              -2.4690               4.6135
 A(ORB+DIA)      0.0375               0.0204              -0.0437    A(PC) =   0.0047
 A(ORB)          0.0376               0.0206              -0.0449    A(PC) =   0.0044
 A(DIA)         -0.0001              -0.0003               0.0012    A(PC) =   0.0003
             ----------           ----------           ----------
 A(Tot)         -1.7070              -2.0487               4.9697    A(iso)=    0.4047
 Orientation: 
  X          -0.2165544           -0.6845242            0.6960824
  Y          -0.8017878            0.5314917            0.2732267
  Z          -0.5569924           -0.4989420           -0.6639401

Notes:  (1) The A matrix conforms to the "SAI" spin Hamiltonian convention.
        (2) Tensor is right-handed.

 Raw EFG matrix (all values in a.u.**-3):
 -----------------------------------
            -0.0802       0.1170       0.1081
             0.1170       0.0519       0.1824
             0.1081       0.1824       0.0283

 V(El)       0.4323       0.5553      -0.9875
 V(Nuc)     -0.5748      -0.7040       1.2788
         ----------   ----------   ----------
 V(Tot)     -0.1425      -0.1487       0.2912 
 Orientation: 
  X       0.1523934    0.9063531   -0.3940816
  Y       0.6258624   -0.3971008   -0.6712729
  Z      -0.7649004   -0.1443433   -0.6277678

Note: Tensor is right-handed


 Quadrupole tensor eigenvalues (in MHz;Q= 0.0029 I=  1.0)
  e**2qQ            =     0.195554 MHz 
  e**2qQ/(4I*(2I-1))=     0.048889 MHz 
  eta               =     0.021071
  NOTE: the diagonal representation of the SH term I*Q*I = e**2qQ/(4I(2I-1))*[-(1-eta),-(1+eta),2]

 RHO(0)=      0.445831366 a.u.**-3

 -----------------------------------------------------------
 Nucleus   0V : A:ISTP=   51 I=  3.5 P=140.5173 MHz/au**3
                Q:ISTP=   51 I=  3.5 Q= -0.0430 barn     
 -----------------------------------------------------------
 Solving for nuclear perturbation:
Forming RHS of the CP-SCF equations         ... 
Calc. nucleus orbit integrals (SHARK)       ... done

------------------------------------------------------------------------------
                           ORCA CP-SCF CALCULATION
------------------------------------------------------------------------------

Input orbitals are from        ... input_34.gbw
Input Perturbation             ... input_34.pin.tmp
Wavefunction output            ... input_34.pout.tmp
Perturbation mode              ... Imaginary perturbation
Solver                         ... POPLE
Max. number of iterations      ... 64
Convergence tolerance          ... 1.000e-03
Integral handling              ... Direct
DFT GridXC                     ... 1
COSX GridX                     ... 1
COSX IntAccX                   ... 3.067
COSX Algorithm                 ... Auto
Number of perturbations        ... 3
Number of operators            ... 2
Orbital ranges used for CP-SCF:
 Operator 0:  Orbitals   0... 72  to  73...352
 Operator 1:  Orbitals   0... 71  to  72...352
Variables per perturbation     ... 40672
DFT calculation                         ... on
XC functional terms                     ... off
Hybrid DFT                              ... on
   Exchange mixing (SCF)                ...  0.200
   Exchange mixing (CP-SCF)             ...  0.200
   GGA exch. scaling(SCF)               ...  0.720
   GGA exch. scaling (CP-SCF)           ...  0.720
   GGA corr. scaling (SCF)              ...  0.810
   GGA corr. scaling (CP-SCF)           ...  0.810

CP-SCF GRID
-----------

General Integration Accuracy     IntAcc      ... 3.467
Radial Grid Type                 RadialGrid  ... OptM3 with GC (2021)
Angular Grid (max. ang.)         AngularGrid ... 1 (Lebedev-50)
Angular grid pruning method      GridPruning ... 4 (adaptive)
Weight generation scheme         WeightScheme... Becke
Basis function cutoff            BFCut       ... 1.0000e-10
Integration weight cutoff        WCut        ... 1.0000e-14
Angular grids for H and He will be reduced by one unit
Partially contracted basis set               ... off
Rotationally invariant grid construction     ... off

Total number of grid points                  ...    23543
Total number of batches                      ...      383
Average number of points per batch           ...       61
Average number of grid points per atom       ...      981

CP-SCF GRIDX
------------

General Integration Accuracy     IntAcc      ... 3.067
Radial Grid Type                 RadialGrid  ... OptM3 with GC (2021)
Angular Grid (max. ang.)         AngularGrid ... 1 (Lebedev-50)
Angular grid pruning method      GridPruning ... 4 (adaptive)
Weight generation scheme         WeightScheme... Becke
Basis function cutoff            BFCut       ... 1.0000e-10
Integration weight cutoff        WCut        ... 1.0000e-14
Angular grids for H and He will be reduced by one unit
Partially contracted basis set               ... on
Rotationally invariant grid construction     ... off

Total number of grid points                  ...    10195
Total number of batches                      ...      170
Average number of points per batch           ...       59
Average number of grid points per atom       ...      425

Memory available               ... 898.3 MB
Memory needed per perturbation ...  15.7 MB
Perturbations treated per batch... 3
Number of batches              ... 1
     CP-SCF ITERATION   0:   1.2520e+01 (   2.7 sec   0/  3 done)
     CP-SCF ITERATION   1:   2.4525e+00 (   2.6 sec   0/  3 done)
     CP-SCF ITERATION   2:   4.3319e-01 (   2.6 sec   0/  3 done)
     CP-SCF ITERATION   3:   1.0032e-01 (   2.6 sec   0/  3 done)
     CP-SCF ITERATION   4:   2.7169e-02 (   2.6 sec   0/  3 done)
     CP-SCF ITERATION   5:   3.9534e-03 (   2.6 sec   0/  3 done)
     CP-SCF ITERATION   6:   7.1205e-04 (   2.6 sec   3/  3 done)
                    *** THE CP-SCF HAS CONVERGED ***

Forming final perturbed densities           ... done
Transforming perturbed density to AO basis  ... done

 Raw HFC matrix (all values in MHz): 
 -----------------------------------
              -287.7075            -137.4101              44.3839
              -136.3740            -181.9761              29.8137
                43.0299              28.7809             -90.0802

 A(FC)        -174.6865            -174.6865            -174.6865
 A(SD)         101.8876              94.7830            -196.6705
 A(ORB+DIA)     -8.0450              -8.2250             -19.4343    A(PC) = -11.9014
 A(ORB)         -8.0452              -8.2249             -19.4344    A(PC) = -11.9015
 A(DIA)          0.0002              -0.0001               0.0000    A(PC) =   0.0001
             ----------           ----------           ----------
 A(Tot)        -80.8439             -88.1286            -390.7914    A(iso)= -186.5880
 Orientation: 
  X           0.2060204            0.5462530            0.8118887
  Y           0.0064793           -0.8304307            0.5570842
  Z           0.9785262           -0.1095103           -0.1746250

Notes:  (1) The A matrix conforms to the "SAI" spin Hamiltonian convention.
        (2) Tensor is right-handed.

 Raw EFG matrix (all values in a.u.**-3):
 -----------------------------------
             0.2466       0.2532      -0.1113
             0.2532      -0.0440      -0.0277
            -0.1113      -0.0277      -0.2026

 V(El)      -0.1125      -0.2490       0.3614
 V(Nuc)     -0.0589       0.0074       0.0516
         ----------   ----------   ----------
 V(Tot)     -0.1714      -0.2416       0.4130 
 Orientation: 
  X      -0.3400465    0.3885482    0.8563870
  Y       0.7874193   -0.3802317    0.4851749
  Z       0.5141393    0.8393177   -0.1766539

Note: Tensor is right-handed


 Quadrupole tensor eigenvalues (in MHz;Q=-0.0430 I=  3.5)
  e**2qQ            =    -4.173016 MHz 
  e**2qQ/(4I*(2I-1))=    -0.049679 MHz 
  eta               =     0.170019
  NOTE: the diagonal representation of the SH term I*Q*I = e**2qQ/(4I(2I-1))*[-(1-eta),-(1+eta),2]

 RHO(0)=   8115.172842981 a.u.**-3


--------------------------------------------------------------------------------
----------------------------------------------------------------------------
                           ORCA EULER ANGLE PROGRAM
----------------------------------------------------------------------------

Only g-tensor available        -->  using g-tensor as reference tensor

Reference tensor               ...  g

g-tensor ordering              ...  |g_min> --> |gx>
                                    |g_mid> --> |gy>
                                    |g_max> --> |gz>

A- and EFG-tensor ordering     ...  the axes |Ax>, |Qx>, |Ay>, etc. are assigned
                                    such that the Euler rotation is minimal. You
                                    can find the respective eigenvalues as Ax,
                                    EFGx, Ay, etc. in the tables below.
                                    The relation of |Ax>, |Ay>,  etc. to Amin, Amid, etc.
                                    (as printed in the ORCA EPR/NMR CALCULATION Output)
                                    is obtained in the detailed printout.

Euler rotation around          ...  z - y - z
   First rotation              -->  by alpha around z
   Second rotation             -->  by beta around y'
   Third rotation              -->  by gamma around z''
   Positive / Negative angle   -->  clockwise / counterclockwise rotation

Plot EFG-tensors                    (-)
Plot HFC-tensors                    (-)
Detailed Printout                   (-)

-------------------------------------------------------------------------
          Euler rotation of hyperfine tensor to g-tensor
-------------------------------------------------------------------------

-------------------------------------------------------------------
 Atom  |   Alpha    Beta    Gamma   |   Ax       Ay       Az 
       |          [degrees]         |           [MHz]         
-------------------------------------------------------------------
  9H       51.2     24.5    -57.1      -2.53     1.76    -2.96
 10H      158.0     49.6   -139.5      -0.78     2.39    -0.90
 11H      -84.9     35.0     88.8      -2.50    -2.14     4.78
 12H       84.5     41.8    -63.3      -0.06     2.40     0.17
 13H      -50.3     35.6     32.2       2.48    -1.85    -1.46
 14H     -132.0     39.6    161.2      -3.39    -3.26    -0.18
 18H     -144.5     25.3    139.7      -2.43    -2.24     0.98
 19H      -21.5     41.3    -17.9       3.14    -3.61    -3.24
 20H      -86.9     36.3     69.8      -0.04    -0.06     2.38
 21H       96.8     38.0    -92.0      -0.21     2.18    -0.15
 22H      141.1     33.9   -168.9      -2.58     0.69    -2.42
 23H     -156.1     34.6   -160.5       4.97    -1.71    -2.05
  0V     -122.3     50.2    122.5    -390.79   -88.13   -80.84
-------------------------------------------------------------------


-------------------------------------------------------------------------------
    Euler rotation of Electric Field Gradient (EFG) tensor to g-tensor
-------------------------------------------------------------------------------

-------------------------------------------------------------------
 Atom  |   Alpha    Beta    Gamma  |   EFGx     EFGy     EFGz
       |          [degrees]        |         [a.u.**-3]       
-------------------------------------------------------------------
  9H       85.7     35.8    -58.8      0.27    -0.14    -0.13
 10H      165.4     13.0   -121.3     -0.14     0.26    -0.12
 11H     -132.1     28.9     98.9      0.29    -0.14    -0.15
 12H       78.8     41.2    -61.5     -0.13     0.24    -0.11
 13H     -170.1     39.1    148.2      0.28    -0.14    -0.14
 14H     -165.2     22.7   -163.8     -0.14    -0.14     0.29
 18H      151.2     22.1   -169.8     -0.15    -0.14     0.29
 19H      164.9     39.2   -175.4      0.29    -0.14    -0.15
 20H       20.7     39.2     -3.4     -0.14    -0.14     0.28
 21H       10.7     26.6     20.7     -0.14     0.28    -0.15
 22H     -165.7     21.0    141.7     -0.15     0.29    -0.14
 23H      -99.4     20.9     57.2      0.29    -0.15    -0.14
  0V     -136.7     28.8    146.6      0.41    -0.17    -0.24
-------------------------------------------------------------------


Maximum memory used throughout the entire EPRNMR-calculation: 160.0 MB

Timings for individual modules:

Sum of individual times         ...      870.165 sec (=  14.503 min)
GTO integral calculation        ...        0.942 sec (=   0.016 min)   0.1 %
Spin-Orbit-Coupling Matrices    ...        5.295 sec (=   0.088 min)   0.6 %
SCF iterations                  ...      106.724 sec (=   1.779 min)  12.3 %
EPR/NMR calculation             ...      757.204 sec (=  12.620 min)  87.0 %
                             ****ORCA TERMINATED NORMALLY****
TOTAL RUN TIME: 0 days 0 hours 14 minutes 31 seconds 22 msec
