
                                 *****************
                                 * O   R   C   A *
                                 *****************

                                            #,                                       
                                            ###                                      
                                            ####                                     
                                            #####                                    
                                            ######                                   
                                           ########,                                 
                                     ,,################,,,,,                         
                               ,,#################################,,                 
                          ,,##########################################,,             
                       ,#########################################, ''#####,          
                    ,#############################################,,   '####,        
                  ,##################################################,,,,####,       
                ,###########''''           ''''###############################       
              ,#####''   ,,,,##########,,,,          '''####'''          '####       
            ,##' ,,,,###########################,,,                        '##       
           ' ,,###''''                  '''############,,,                           
         ,,##''                                '''############,,,,        ,,,,,,###''
      ,#''                                            '''#######################'''  
     '                                                          ''''####''''         
             ,#######,   #######,   ,#######,      ##                                
            ,#'     '#,  ##    ##  ,#'     '#,    #''#        ######   ,####,        
            ##       ##  ##   ,#'  ##            #'  '#       #        #'  '#        
            ##       ##  #######   ##           ,######,      #####,   #    #        
            '#,     ,#'  ##    ##  '#,     ,#' ,#      #,         ##   #,  ,#        
             '#######'   ##     ##  '#######'  #'      '#     #####' # '####'        



                  #######################################################
                  #                        -***-                        #
                  #          Department of theory and spectroscopy      #
                  #    Directorship and core code : Frank Neese         #
                  #        Max Planck Institute fuer Kohlenforschung    #
                  #                Kaiser Wilhelm Platz 1               #
                  #                 D-45470 Muelheim/Ruhr               #
                  #                      Germany                        #
                  #                                                     #
                  #                  All rights reserved                #
                  #                        -***-                        #
                  #######################################################


                         Program Version 5.0.4 -  RELEASE  -


 With contributions from (in alphabetic order):
   Daniel Aravena         : Magnetic Suceptibility
   Michael Atanasov       : Ab Initio Ligand Field Theory (pilot matlab implementation)
   Alexander A. Auer      : GIAO ZORA, VPT2 properties, NMR spectrum
   Ute Becker             : Parallelization
   Giovanni Bistoni       : ED, misc. LED, open-shell LED, HFLD
   Martin Brehm           : Molecular dynamics
   Dmytro Bykov           : SCF Hessian
   Vijay G. Chilkuri      : MRCI spin determinant printing, contributions to CSF-ICE
   Dipayan Datta          : RHF DLPNO-CCSD density
   Achintya Kumar Dutta   : EOM-CC, STEOM-CC
   Dmitry Ganyushin       : Spin-Orbit,Spin-Spin,Magnetic field MRCI
   Miquel Garcia          : C-PCM and meta-GGA Hessian, CC/C-PCM, Gaussian charge scheme
   Yang Guo               : DLPNO-NEVPT2, F12-NEVPT2, CIM, IAO-localization
   Andreas Hansen         : Spin unrestricted coupled pair/coupled cluster methods
   Benjamin Helmich-Paris : MC-RPA, TRAH-SCF, COSX integrals
   Lee Huntington         : MR-EOM, pCC
   Robert Izsak           : Overlap fitted RIJCOSX, COSX-SCS-MP3, EOM
   Marcus Kettner         : VPT2
   Christian Kollmar      : KDIIS, OOCD, Brueckner-CCSD(T), CCSD density, CASPT2, CASPT2-K
   Simone Kossmann        : Meta GGA functionals, TD-DFT gradient, OOMP2, MP2 Hessian
   Martin Krupicka        : Initial AUTO-CI
   Lucas Lang             : DCDCAS
   Marvin Lechner         : AUTO-CI (C++ implementation), FIC-MRCC
   Dagmar Lenk            : GEPOL surface, SMD
   Dimitrios Liakos       : Extrapolation schemes; Compound Job, initial MDCI parallelization
   Dimitrios Manganas     : Further ROCIS development; embedding schemes
   Dimitrios Pantazis     : SARC Basis sets
   Anastasios Papadopoulos: AUTO-CI, single reference methods and gradients
   Taras Petrenko         : DFT Hessian,TD-DFT gradient, ASA, ECA, R-Raman, ABS, FL, XAS/XES, NRVS
   Peter Pinski           : DLPNO-MP2, DLPNO-MP2 Gradient
   Christoph Reimann      : Effective Core Potentials
   Marius Retegan         : Local ZFS, SOC
   Christoph Riplinger    : Optimizer, TS searches, QM/MM, DLPNO-CCSD(T), (RO)-DLPNO pert. Triples
   Tobias Risthaus        : Range-separated hybrids, TD-DFT gradient, RPA, STAB
   Michael Roemelt        : Original ROCIS implementation
   Masaaki Saitow         : Open-shell DLPNO-CCSD energy and density
   Barbara Sandhoefer     : DKH picture change effects
   Avijit Sen             : IP-ROCIS
   Kantharuban Sivalingam : CASSCF convergence, NEVPT2, FIC-MRCI
   Bernardo de Souza      : ESD, SOC TD-DFT
   Georgi Stoychev        : AutoAux, RI-MP2 NMR, DLPNO-MP2 response
   Willem Van den Heuvel  : Paramagnetic NMR
   Boris Wezisla          : Elementary symmetry handling
   Frank Wennmohs         : Technical directorship


 We gratefully acknowledge several colleagues who have allowed us to
 interface, adapt or use parts of their codes:
   Stefan Grimme, W. Hujo, H. Kruse, P. Pracht,  : VdW corrections, initial TS optimization,
                  C. Bannwarth, S. Ehlert          DFT functionals, gCP, sTDA/sTD-DF
   Ed Valeev, F. Pavosevic, A. Kumar             : LibInt (2-el integral package), F12 methods
   Garnet Chan, S. Sharma, J. Yang, R. Olivares  : DMRG
   Ulf Ekstrom                                   : XCFun DFT Library
   Mihaly Kallay                                 : mrcc  (arbitrary order and MRCC methods)
   Jiri Pittner, Ondrej Demel                    : Mk-CCSD
   Frank Weinhold                                : gennbo (NPA and NBO analysis)
   Christopher J. Cramer and Donald G. Truhlar   : smd solvation model
   Lars Goerigk                                  : TD-DFT with DH, B97 family of functionals
   V. Asgeirsson, H. Jonsson                     : NEB implementation
   FAccTs GmbH                                   : IRC, NEB, NEB-TS, DLPNO-Multilevel, CI-OPT
                                                   MM, QMMM, 2- and 3-layer-ONIOM, Crystal-QMMM,
                                                   LR-CPCM, SF, NACMEs, symmetry and pop. for TD-DFT,
                                                   nearIR, NL-DFT gradient (VV10), updates on ESD,
                                                   ML-optimized integration grids
   S Lehtola, MJT Oliveira, MAL Marques          : LibXC Library
   Liviu Ungur et al                             : ANISO software


 Your calculation uses the libint2 library for the computation of 2-el integrals
 For citations please refer to: http://libint.valeyev.net

 Your ORCA version has been built with support for libXC version: 5.1.0
 For citations please refer to: https://tddft.org/programs/libxc/

 This ORCA versions uses:
   CBLAS   interface :  Fast vector & matrix operations
   LAPACKE interface :  Fast linear algebra routines
   SCALAPACK package :  Parallel linear algebra routines
   Shared memory     :  Shared parallel matrices
   BLAS/LAPACK       :  OpenBLAS 0.3.15  USE64BITINT DYNAMIC_ARCH NO_AFFINITY Prescott SINGLE_THREADED
        Core in use  :  Prescott
   Copyright (c) 2011-2014, The OpenBLAS Project


================================================================================

----- Orbital basis set information -----
Your calculation utilizes the basis: TZVP 

The basis set includes element-specific modifications.

Your calculation utilizes the basis: CP(PPP) 

----- AuxJ basis set information -----
Your calculation utilizes the auxiliary basis: def2/J
   F. Weigend, Phys. Chem. Chem. Phys. 8, 1057 (2006).

================================================================================
                                        WARNINGS
                       Please study these warnings very carefully!
================================================================================


WARNING: your system is open-shell and RHF/RKS was chosen
  ===> : WILL SWITCH to UHF/UKS


INFO   : the flag for use of the SHARK integral package has been found!

================================================================================
                                       INPUT FILE
================================================================================
NAME = input_43.inp
|  1> ! nofrozencore ReducedPop printbasis
|  2> ! B3LYP TZVP
|  3> 
|  4> %basis
|  5> newgto V "CP(PPP)" end
|  6> end
|  7> 
|  8> %pal
|  9> nprocs 8
| 10> end
| 11> 
| 12> % sym SymThresh 1e-2 end
| 13> * xyz -2 2 
| 14> V 0.3860163776269975 0.27861562352230657 0.12011378599481247
| 15> S 0.35011151769268645 -1.3413665309432377 2.0653703071036023
| 16> S 0.927561909415296 -1.766399243329144 -1.1105569736146264
| 17> S -1.6623309168217013 1.3455260825741233 1.0286959465194059
| 18> S -0.4758909991360165 1.30886322189746 -1.9729387195973738
| 19> O 1.7191689677918272 1.1112035707242007 0.44729200910408623
| 20> C 1.1538916711862475 -1.3201373901049918 -2.895182747108512
| 21> C 0.8768257651099274 1.2160936198198937 -3.2362262198792187
| 22> C 1.8442079848345128 0.030121594323123235 -3.1268466340378867
| 23> H 1.4589053487041774 2.144719454340718 -3.2056173617292183
| 24> H 0.38319644990404317 1.1794974399707914 -4.216277144496823
| 25> H 2.5448197449497734 0.19918319481438673 -2.305046264485445
| 26> H 2.4394283084016077 0.010599720100559415 -4.0579582077778555
| 27> H 0.18477737421615736 -1.3147553425701815 -3.4061148338338434
| 28> H 1.760770990087907 -2.112827178050034 -3.349413170945469
| 29> C -1.5052537578301826 -1.5809786705344393 2.323146281630856
| 30> C -1.6914213724526856 0.9420883451747183 2.800666507203818
| 31> C -2.1001658681663846 -0.490489426068235 3.197800770996716
| 32> H -2.337551024887458 1.6004793883111492 3.414262515146538
| 33> H -0.7407111522670567 0.8548080082173654 3.4490096686370237
| 34> H -3.1785328790461946 -0.5935496878724933 2.962106947233806
| 35> H -1.9850276438711676 -0.7062269887745458 4.274893405178978
| 36> H -1.4956286212349912 -2.5871276770060327 2.777315132441598
| 37> H -1.6427687053756808 -1.7440384156640114 1.1937053766283683
| 38> * 
| 39> 
| 40> % eprnmr
| 41> gtensor true
| 42> Nuclei = all H {aiso,adip,aorb,fgrad,rho}
| 43> Nuclei = all V {aiso,adip,aorb,fgrad,rho}
| 44> end
| 45> 
| 46>                          ****END OF INPUT****
================================================================================

------------------------------------------------------------------------------
                            SYMMETRY HANDLING SETUP
------------------------------------------------------------------------------

------------------
SYMMETRY DETECTION
------------------
The point group will now be determined using a tolerance of 1.0000e-02.
Splitting atom subsets according to nuclear charge, mass and basis set.
Splitting atom subsets according to distance from the molecule's center.
Identifying relative distance patterns of the atoms.
Splitting atom subsets according to atoms' relative distance patterns.
Bring atoms of each subset into input order.
The molecule is neither linear nor planar.
There is at least one atom subset not centered around the molecule's center.
The molecule does not have a center of inversion.
Analyzing the first atom subset for its symmetry.
The subset consists of a single off-center atom.
No testing is needed for point group C1.
This point group has been found:    C1
Largest non-degenerate subgroup:    C1


Mass-centered symmetry-perfected Cartesians (point group C1):

Atom          Symmetry-perfected Cartesians (x, y, z; au)
  0       0.730333465657    0.527258643037    0.227829004797
  1       0.662483113504   -2.534063970742    3.903831089918
  2       1.753706209785   -3.337259395109   -2.097801691889
  3      -3.140481948010    2.543427220061    1.944800458355
  4      -0.898435429232    2.474144454096   -3.727467014689
  5       3.249626755796    2.100621845653    0.846106243457
  6       2.181407475488   -2.493946708500   -5.470255655330
  7       1.657828791957    2.298835312617   -6.114734418628
  8       3.485916254061    0.057672981936   -5.908036956746
  9       2.757799793097    4.053683820745   -6.056892059453
 10       0.725004574543    2.229678555154   -7.966762263452
 11       4.809880606884    0.377153106627   -4.355059321537
 12       4.610719654947    0.020781986035   -7.667582831239
 13       0.350046861747   -2.483776112619   -6.435777372274
 14       3.328243184553   -3.991913316872   -6.328626758077
 15      -2.843649135621   -2.986865292933    4.390957085679
 16      -3.195454942263    1.781040384288    5.293339535420
 17      -3.967870097910   -0.926139268905    6.043814532385
 18      -4.416463032371    3.025219144842    6.452867947299
 19      -1.398872993393    1.616104450562    6.518530551329
 20      -6.005688420328   -1.120894939005    5.598417754016
 21      -3.750290386446   -1.333824179219    8.079224631853
 22      -2.825460263455   -4.888211365081    5.249211832269
 23      -3.103514725803   -3.295003554694    2.256623090776


------------------
SYMMETRY REDUCTION
------------------
ORCA supports only abelian point groups.
It is now checked, if the determined point group is supported:
Point Group ( C1    ) is          ... supported

The point group is C1 - hence turning off symmetry
If this is a round-off problem, please increase the symmetry
        detection tolerance (%method SymThresh)

Storing the symmetry object:
Symmetry file                     ... input_43.sym.tmp
Writing symmetry information      ... done

                       ****************************
                       * Single Point Calculation *
                       ****************************

---------------------------------
CARTESIAN COORDINATES (ANGSTROEM)
---------------------------------
  V      0.386476    0.279013    0.120562
  S      0.350571   -1.340969    2.065818
  S      0.928021   -1.766002   -1.110109
  S     -1.661871    1.345924    1.029144
  S     -0.475432    1.309261   -1.972491
  O      1.719628    1.111601    0.447740
  C      1.154351   -1.319740   -2.894735
  C      0.877285    1.216491   -3.235778
  C      1.844667    0.030519   -3.126399
  H      1.459365    2.145117   -3.205169
  H      0.383656    1.179895   -4.215829
  H      2.545279    0.199581   -2.304598
  H      2.439888    0.010997   -4.057510
  H      0.185237   -1.314358   -3.405667
  H      1.761230   -2.112430   -3.348965
  C     -1.504794   -1.580581    2.323594
  C     -1.690962    0.942486    2.801115
  C     -2.099706   -0.490092    3.198249
  H     -2.337092    1.600877    3.414711
  H     -0.740252    0.855206    3.449458
  H     -3.178073   -0.593152    2.962555
  H     -1.984568   -0.705829    4.275342
  H     -1.495169   -2.586730    2.777763
  H     -1.642309   -1.743641    1.194154

----------------------------
CARTESIAN COORDINATES (A.U.)
----------------------------
  NO LB      ZA    FRAG     MASS         X           Y           Z
   0 V    23.0000    0    50.940    0.730333    0.527259    0.227829
   1 S    16.0000    0    32.060    0.662483   -2.534064    3.903831
   2 S    16.0000    0    32.060    1.753706   -3.337259   -2.097802
   3 S    16.0000    0    32.060   -3.140482    2.543427    1.944800
   4 S    16.0000    0    32.060   -0.898435    2.474144   -3.727467
   5 O     8.0000    0    15.999    3.249627    2.100622    0.846106
   6 C     6.0000    0    12.011    2.181407   -2.493947   -5.470256
   7 C     6.0000    0    12.011    1.657829    2.298835   -6.114734
   8 C     6.0000    0    12.011    3.485916    0.057673   -5.908037
   9 H     1.0000    0     1.008    2.757800    4.053684   -6.056892
  10 H     1.0000    0     1.008    0.725005    2.229679   -7.966762
  11 H     1.0000    0     1.008    4.809881    0.377153   -4.355059
  12 H     1.0000    0     1.008    4.610720    0.020782   -7.667583
  13 H     1.0000    0     1.008    0.350047   -2.483776   -6.435777
  14 H     1.0000    0     1.008    3.328243   -3.991913   -6.328627
  15 C     6.0000    0    12.011   -2.843649   -2.986865    4.390957
  16 C     6.0000    0    12.011   -3.195455    1.781040    5.293340
  17 C     6.0000    0    12.011   -3.967870   -0.926139    6.043815
  18 H     1.0000    0     1.008   -4.416463    3.025219    6.452868
  19 H     1.0000    0     1.008   -1.398873    1.616104    6.518531
  20 H     1.0000    0     1.008   -6.005688   -1.120895    5.598418
  21 H     1.0000    0     1.008   -3.750290   -1.333824    8.079225
  22 H     1.0000    0     1.008   -2.825460   -4.888211    5.249212
  23 H     1.0000    0     1.008   -3.103515   -3.295004    2.256623

--------------------------------
INTERNAL COORDINATES (ANGSTROEM)
--------------------------------
 V      0   0   0     0.000000000000     0.00000000     0.00000000
 S      1   0   0     2.531729502271     0.00000000     0.00000000
 S      1   2   0     2.447428831897    81.65318696     0.00000000
 S      1   2   3     2.481843288512    88.97322880   137.42825451
 S      1   2   3     2.486998840217   155.06631842    71.55048851
 O      1   2   3     1.605473172671   100.77939571   250.47083444
 C      3   1   2     1.853446506950   108.05959176   180.55847467
 C      5   1   2     1.853198357357   107.45713659   235.10556105
 C      7   3   1     1.534080863066   114.34793459    37.43749913
 H      8   5   1     1.096402975358   109.03180711   267.10472697
 H      8   5   1     1.097956736877   106.37802617   152.07120394
 H      9   7   3     1.093066562735   108.12087444    31.70781260
 H      9   7   3     1.105276933584   110.73212708   148.52606783
 H      7   3   1     1.095565189422   110.01166966   274.58536875
 H      7   3   1     1.096806676476   106.99659773   158.16016522
 C      2   1   3     1.888449823559   101.53714971   257.54684914
 C      4   1   2     1.817549980193   105.94412512    22.77518159
 C     16   2   1     1.519245762571   111.85352796   275.41589964
 H     17   4   1     1.107909000957   114.66868255   160.74533426
 H     17   4   1     1.154043601846   123.45726678    34.86551262
 H     18  16   2     1.108624556050   101.05622783   162.14879491
 H     18  16   2     1.104503530672   112.35888304   275.75832626
 H     16   2   1     1.103946471313    99.39464573   153.69017760
 H     16   2   1     1.149406629167    90.08100568    47.43048617

---------------------------
INTERNAL COORDINATES (A.U.)
---------------------------
 V      0   0   0     0.000000000000     0.00000000     0.00000000
 S      1   0   0     4.784275404461     0.00000000     0.00000000
 S      1   2   0     4.624970224548    81.65318696     0.00000000
 S      1   2   3     4.690004122599    88.97322880   137.42825451
 S      1   2   3     4.699746703390   155.06631842    71.55048851
 O      1   2   3     3.033904611706   100.77939571   250.47083444
 C      3   1   2     3.502506302008   108.05959176   180.55847467
 C      5   1   2     3.502037367237   107.45713659   235.10556105
 C      7   3   1     2.898992698484   114.34793459    37.43749913
 H      8   5   1     2.071901355843   109.03180711   267.10472697
 H      8   5   1     2.074837539592   106.37802617   152.07120394
 H      9   7   3     2.065596449716   108.12087444    31.70781260
 H      9   7   3     2.088670706614   110.73212708   148.52606783
 H      7   3   1     2.070318169865   110.01166966   274.58536875
 H      7   3   1     2.072664240396   106.99659773   158.16016522
 C      2   1   3     3.568652984178   101.53714971   257.54684914
 C      4   1   2     3.434671697278   105.94412512    22.77518159
 C     16   2   1     2.870958421379   111.85352796   275.41589964
 H     17   4   1     2.093644593115   114.66868255   160.74533426
 H     17   4   1     2.180826354093   123.45726678    34.86551262
 H     18  16   2     2.094996796274   101.05622783   162.14879491
 H     18  16   2     2.087209186918   112.35888304   275.75832626
 H     16   2   1     2.086156497291    99.39464573   153.69017760
 H     16   2   1     2.172063745639    90.08100568    47.43048617

---------------------
BASIS SET INFORMATION
---------------------
There are 5 groups of distinct atoms

 Group   1 Type V   : 17s11p5d1f contracted to 17s7p3d1f pattern {11111111111111111/3311111/311/1}
 Group   2 Type S   : 14s9p1d contracted to 5s4p1d pattern {73211/6111/1}
 Group   3 Type O   : 11s6p1d contracted to 5s3p1d pattern {62111/411/1}
 Group   4 Type C   : 11s6p1d contracted to 5s3p1d pattern {62111/411/1}
 Group   5 Type H   : 5s1p contracted to 3s1p pattern {311/1}

Atom   0V    basis set group =>   1
Atom   1S    basis set group =>   2
Atom   2S    basis set group =>   2
Atom   3S    basis set group =>   2
Atom   4S    basis set group =>   2
Atom   5O    basis set group =>   3
Atom   6C    basis set group =>   4
Atom   7C    basis set group =>   4
Atom   8C    basis set group =>   4
Atom   9H    basis set group =>   5
Atom  10H    basis set group =>   5
Atom  11H    basis set group =>   5
Atom  12H    basis set group =>   5
Atom  13H    basis set group =>   5
Atom  14H    basis set group =>   5
Atom  15C    basis set group =>   4
Atom  16C    basis set group =>   4
Atom  17C    basis set group =>   4
Atom  18H    basis set group =>   5
Atom  19H    basis set group =>   5
Atom  20H    basis set group =>   5
Atom  21H    basis set group =>   5
Atom  22H    basis set group =>   5
Atom  23H    basis set group =>   5

-------------------------
BASIS SET IN INPUT FORMAT
-------------------------

 # Basis set for element : H 
 NewGTO H 
 S 3 
   1      34.0613410000      0.0254393168
   2       5.1235746000      0.1900859340
   3       1.1646626000      0.8524411390
 S 1 
   1       0.3272304100      1.0000000000
 S 1 
   1       0.1030724100      1.0000000000
 P 1 
   1       0.8000000000      1.0000000000
  end;

 # Basis set for element : C 
 NewGTO C 
 S 6 
   1   13575.3496820000      0.0006064601
   2    2035.2333680000      0.0046978985
   3     463.2256235900      0.0243324735
   4     131.2001959800      0.0973999560
   5      42.8530158900      0.3019558443
   6      15.5841857700      0.6623361013
 S 2 
   1       6.2067138500      0.6559530795
   2       2.5764896500      0.3758563390
 S 1 
   1       0.5769633900      1.0000000000
 S 1 
   1       0.2297283100      1.0000000000
 S 1 
   1       0.0951644400      1.0000000000
 P 4 
   1      34.6972322400      0.0113272290
   2       7.9582622800      0.0761696612
   3       2.3780826900      0.3019225154
   4       0.8143320800      0.7278502776
 P 1 
   1       0.2888754700      1.0000000000
 P 1 
   1       0.1005682400      1.0000000000
 D 1 
   1       0.8000000000      1.0000000000
  end;

 # Basis set for element : O 
 NewGTO O 
 S 6 
   1   27032.3826310000      0.0005722654
   2    4052.3871392000      0.0044353333
   3     922.3272271000      0.0230201034
   4     261.2407098900      0.0928224938
   5      85.3546413500      0.2937849971
   6      31.0350352400      0.6740160462
 S 2 
   1      12.2608607300      0.6383993750
   2       4.9987076000      0.3953458663
 S 1 
   1       1.1703108200      1.0000000000
 S 1 
   1       0.4647474100      1.0000000000
 S 1 
   1       0.1850453600      1.0000000000
 P 4 
   1      63.2749548000      0.0120183316
   2      14.6270493800      0.0830054304
   3       4.4501223500      0.3199174388
   4       1.5275799600      0.7071554258
 P 1 
   1       0.5293511800      1.0000000000
 P 1 
   1       0.1747842100      1.0000000000
 D 1 
   1       1.2000000000      1.0000000000
  end;

 # Basis set for element : S 
 NewGTO S 
 S 7 
   1   60700.9281040000      0.0005238013
   2    9102.6106854000      0.0040506304
   3    2071.4166009000      0.0208270003
   4     586.0247682100      0.0814968475
   5     190.5539502100      0.2374911358
   6      67.6303842600      0.4472617145
   7      25.1273069100      0.3489191913
 S 3 
   1     112.5746301000      0.1004556993
   2      34.7955542200      0.4339117282
   3       6.5115556200     -1.2084330582
 S 2 
   1       3.2399032300      0.6749812922
   2       1.5477160900      0.3470879597
 S 1 
   1       0.4054103000      1.0000000000
 S 1 
   1       0.1455065100      1.0000000000
 P 6 
   1     564.3671602700      0.0025564845
   2     133.4262437900      0.0202874255
   3      42.4682711900      0.0927670112
   4      15.6165275800      0.2650208365
   5       6.1093988500      0.4486298663
   6       2.4404160200      0.3596369916
 P 1 
   1       0.8388220100      1.0000000000
 P 1 
   1       0.3128874700      1.0000000000
 P 1 
   1       0.1077010900      1.0000000000
 D 1 
   1       0.5500000000      1.0000000000
  end;

 # Basis set for element : V 
 NewGTO V 
 S 1 
   1  4239814.9912500000      1.0000000000
 S 1 
   1  1695925.9965000001      1.0000000000
 S 1 
   1  678370.3986000001      1.0000000000
 S 1 
   1  271348.1594400000      1.0000000000
 S 1 
   1   40672.0050780000      1.0000000000
 S 1 
   1    9257.0761385000      1.0000000000
 S 1 
   1    2622.7328773000      1.0000000000
 S 1 
   1     858.5948018500      1.0000000000
 S 1 
   1     314.1941865000      1.0000000000
 S 1 
   1     124.4786212700      1.0000000000
 S 1 
   1      50.4693993090      1.0000000000
 S 1 
   1      12.5138469110      1.0000000000
 S 1 
   1       5.3447758082      1.0000000000
 S 1 
   1       1.5755631295      1.0000000000
 S 1 
   1       0.6306903307      1.0000000000
 S 1 
   1       0.0879544416      1.0000000000
 S 1 
   1       0.0342969197      1.0000000000
 P 3 
   1    1450.0319327000     -0.0222847647
   2     343.7504988400     -0.1817959329
   3     110.8252170800     -0.8607412073
 P 3 
   1      41.8224645460     -0.2522537814
   2      17.0880737100     -0.4620379520
   3       7.2613218939     -0.3990010670
 P 1 
   1       2.9458145262      1.0000000000
 P 1 
   1       1.1650209680      1.0000000000
 P 1 
   1       0.4339937839      1.0000000000
 D 3 
   1      27.3603358640      0.0575501019
   2       7.4542765527      0.3023798347
   3       2.4632270217      0.7724212088
 D 1 
   1       0.8249954244      1.0000000000
 D 1 
   1       0.2526297057      1.0000000000
 P 1 
   1       0.1112480000      1.0000000000
 P 1 
   1       0.0363780000      1.0000000000
 F 1 
   1       1.8000000000      1.0000000000
  end;

---------------------------------
AUXILIARY/J BASIS SET INFORMATION
---------------------------------
There are 5 groups of distinct atoms

 Group   1 Type V   : 19s5p5d3f3g contracted to 8s5p5d2f3g pattern {121111111/11111/11111/21/111}
 Group   2 Type S   : 14s5p5d2f1g contracted to 8s4p3d1f1g pattern {71111111/2111/311/2/1}
 Group   3 Type O   : 12s5p4d2f1g contracted to 6s4p3d1f1g pattern {711111/2111/211/2/1}
 Group   4 Type C   : 12s5p4d2f1g contracted to 6s4p3d1f1g pattern {711111/2111/211/2/1}
 Group   5 Type H   : 5s2p1d contracted to 3s1p1d pattern {311/2/1}

Atom   0V    basis set group =>   1
Atom   1S    basis set group =>   2
Atom   2S    basis set group =>   2
Atom   3S    basis set group =>   2
Atom   4S    basis set group =>   2
Atom   5O    basis set group =>   3
Atom   6C    basis set group =>   4
Atom   7C    basis set group =>   4
Atom   8C    basis set group =>   4
Atom   9H    basis set group =>   5
Atom  10H    basis set group =>   5
Atom  11H    basis set group =>   5
Atom  12H    basis set group =>   5
Atom  13H    basis set group =>   5
Atom  14H    basis set group =>   5
Atom  15C    basis set group =>   4
Atom  16C    basis set group =>   4
Atom  17C    basis set group =>   4
Atom  18H    basis set group =>   5
Atom  19H    basis set group =>   5
Atom  20H    basis set group =>   5
Atom  21H    basis set group =>   5
Atom  22H    basis set group =>   5
Atom  23H    basis set group =>   5

-------------------------------------
AUXILIARY/J BASIS SET IN INPUT FORMAT
-------------------------------------

 # Auxiliary/J basis set for element : H 
 NewAuxJGTO H 
 S 3 
   1      15.6752927000      0.1007184237
   2       3.6063578000      0.3404257499
   3       1.2080016000      0.6491996172
 S 1 
   1       0.4726794000      1.0000000000
 S 1 
   1       0.2018100000      1.0000000000
 P 2 
   1       2.0281365000      0.5596620919
   2       0.5358730000      0.5596620919
 D 1 
   1       2.2165124000      1.0000000000
  end;

 # Auxiliary/J basis set for element : C 
 NewAuxJGTO C 
 S 7 
   1    1861.0916331000      0.0134602335
   2     642.9939764000      0.0299160374
   3     235.1105725000      0.1008649584
   4      90.7028894000      0.2370970548
   5      36.7794552000      0.3924037254
   6      15.6046273000      0.3195862154
   7       6.8907294000      0.0530104441
 S 1 
   1       3.1478850000     -1.0000000000
 S 1 
   1       1.4777287000      1.0000000000
 S 1 
   1       0.7076466000      1.0000000000
 S 1 
   1       0.3430122000      1.0000000000
 S 1 
   1       0.1669453000      1.0000000000
 P 2 
   1      13.5472892000     -0.6769313712
   2       5.4669419000     -0.3779500978
 P 1 
   1       2.1751721000      1.0000000000
 P 1 
   1       0.8582194000      1.0000000000
 P 1 
   1       0.3376720000      1.0000000000
 D 2 
   1       5.9287253000     -0.3533329857
   2       1.9809209000     -0.7456525731
 D 1 
   1       0.8055417000     -1.0000000000
 D 1 
   1       0.3531244000     -1.0000000000
 F 2 
   1       1.6755626000      0.6311076882
   2       0.5997536000      0.4968166032
 G 1 
   1       1.0024600000     -1.0000000000
  end;

 # Auxiliary/J basis set for element : O 
 NewAuxJGTO O 
 S 7 
   1    2876.8216605000      0.0168151159
   2    1004.7443032000      0.0340137548
   3     369.7579954000      0.1194951309
   4     142.9442404000      0.2664627624
   5      57.8366425000      0.4202764046
   6      24.3864983000      0.2765077335
   7      10.6622662000      0.0057008815
 S 1 
   1       4.8070437000     -1.0000000000
 S 1 
   1       2.2210770000      1.0000000000
 S 1 
   1       1.0447795000      1.0000000000
 S 1 
   1       0.4968425000      1.0000000000
 S 1 
   1       0.2371384000      1.0000000000
 P 2 
   1      64.2613382000     -0.2731534179
   2      16.3006076000     -0.8168011598
 P 1 
   1       4.3550542000      1.0000000000
 P 1 
   1       1.2019554000      1.0000000000
 P 1 
   1       0.3354196000      1.0000000000
 D 2 
   1       9.2146611000     -0.4661230638
   2       2.8435251000     -0.6600908911
 D 1 
   1       0.9955759000     -1.0000000000
 D 1 
   1       0.3649441000     -1.0000000000
 F 2 
   1       2.6420115000      0.5931563945
   2       0.7345613000      0.5931563945
 G 1 
   1       1.3931000000     -1.0000000000
  end;

 # Auxiliary/J basis set for element : S 
 NewAuxJGTO S 
 S 7 
   1    7399.0303145000      0.0295137551
   2    2710.1675859000      0.0559686311
   3    1034.3279062000      0.1764696370
   4     410.4645411000      0.3577969368
   5     168.9762502000      0.4299293578
   6      71.9687889000      0.1259148089
   7      31.6172683000     -0.0646025788
 S 1 
   1      14.2796836000      1.0000000000
 S 1 
   1       6.6060948000      1.0000000000
 S 1 
   1       3.1181477000      1.0000000000
 S 1 
   1       1.4954039000     -1.0000000000
 S 1 
   1       0.7254779000      1.0000000000
 S 1 
   1       0.3544216000      1.0000000000
 S 1 
   1       0.1735525000      1.0000000000
 P 2 
   1      12.6998799000      1.4059102813
   2       4.4295784000     -1.2124994202
 P 1 
   1       1.5232889000      1.0000000000
 P 1 
   1       0.5194667000     -1.0000000000
 P 1 
   1       0.1766547000     -1.0000000000
 D 3 
   1      16.8546461000      1.0295742104
   2       5.0810461000     -0.7461553923
   3       1.5102323000      0.8357028005
 D 1 
   1       0.4451331000      1.0000000000
 D 1 
   1       0.1308362000      1.0000000000
 F 2 
   1       1.0809860000      0.5572698934
   2       0.4161474000      0.5572698934
 G 1 
   1       0.6707100000     -1.0000000000
  end;

 # Auxiliary/J basis set for element : V 
 NewAuxJGTO V 
 S 12 
   1   11942.0842430000      0.0459866720
   2    2430.7110193000      0.1744615821
   3     841.0764301000      0.2900402792
   4     494.7508273000      0.1411212903
   5     291.0298903000      0.2660697186
   6     171.1940483000      0.0446365706
   7      59.2366916000     -0.0408204801
   8      34.8451117000      0.1394665381
   9      20.4971240000      0.2164746715
  10      12.0571314000      0.0864266611
  11       7.0924300000     -0.0568501658
  12       4.1720176000     -0.0126212852
 S 1 
   1       2.4541279000      1.0000000000
 S 1 
   1       1.4436046000      1.0000000000
 S 1 
   1       0.8491792000      1.0000000000
 S 1 
   1       0.2938336000      1.0000000000
 S 1 
   1       0.1728433000      1.0000000000
 S 1 
   1       0.1016725000      1.0000000000
 S 1 
   1       0.0598074000      1.0000000000
 P 1 
   1      16.7130979000     -1.0000000000
 P 1 
   1       4.7454037000     -1.0000000000
 P 1 
   1       1.3889998000      1.0000000000
 P 1 
   1       0.4142440000     -1.0000000000
 P 1 
   1       0.1243234000      1.0000000000
 D 1 
   1       7.7143225000      1.0000000000
 D 1 
   1       3.1170731000      1.0000000000
 D 1 
   1       1.2767950000     -1.0000000000
 D 1 
   1       0.5273386000      1.0000000000
 D 1 
   1       0.2184050000      1.0000000000
 F 2 
   1       3.1309344000     -1.0825667766
   2       1.0419780000      0.1809223232
 F 1 
   1       0.3559044000      1.0000000000
 G 1 
   1       8.7130110000      1.0000000000
 G 1 
   1       2.7493872000      1.0000000000
 G 1 
   1       0.8775089000      1.0000000000
  end;



           ************************************************************
           *        Program running with 8 parallel MPI-processes     *
           *              working on a common directory               *
           ************************************************************
------------------------------------------------------------------------------
                           ORCA GTO INTEGRAL CALCULATION
                           -- RI-GTO INTEGRALS CHOSEN --
------------------------------------------------------------------------------
------------------------------------------------------------------------------
                   ___                                                        
                  /   \      - P O W E R E D   B Y -                         
                 /     \                                                     
                 |  |  |   _    _      __       _____    __    __             
                 |  |  |  | |  | |    /  \     |  _  \  |  |  /  |          
                  \  \/   | |  | |   /    \    | | | |  |  | /  /          
                 / \  \   | |__| |  /  /\  \   | |_| |  |  |/  /          
                |  |  |   |  __  | /  /__\  \  |    /   |      \           
                |  |  |   | |  | | |   __   |  |    \   |  |\   \          
                \     /   | |  | | |  |  |  |  | |\  \  |  | \   \       
                 \___/    |_|  |_| |__|  |__|  |_| \__\ |__|  \__/        
                                                                              
                      - O R C A' S   B I G   F R I E N D -                    
                                      &                                       
                       - I N T E G R A L  F E E D E R -                       
                                                                              
 v1 FN, 2020, v2 2021                                                         
------------------------------------------------------------------------------


Reading SHARK input file input_43.SHARKINP.tmp ... ok
----------------------
SHARK INTEGRAL PACKAGE
----------------------

Number of atoms                             ...     24
Number of basis functions                   ...    353
Number of shells                            ...    179
Maximum angular momentum                    ...      3
Integral batch strategy                     ... SHARK/LIBINT Hybrid
RI-J (if used) integral strategy            ... SPLIT-RIJ (Revised 2003 algorithm where possible)
Printlevel                                  ...      1
Contraction scheme used                     ... SEGMENTED contraction
Coulomb Range Separation                    ... NOT USED
Exchange Range Separation                   ... NOT USED
Finite Nucleus Model                        ... NOT USED
Auxiliary Coulomb fitting basis             ... AVAILABLE
   # of basis functions in Aux-J            ...    768
   # of shells in Aux-J                     ...    256
   Maximum angular momentum in Aux-J        ...      4
Auxiliary J/K fitting basis                 ... NOT available
Auxiliary Correlation fitting basis         ... NOT available
Auxiliary 'external' fitting basis          ... NOT available
Integral threshold                          ...     1.000000e-10
Primitive cut-off                           ...     1.000000e-11
Primitive pair pre-selection threshold      ...     1.000000e-11

Calculating pre-screening integrals         ... done (  0.1 sec) Dimension = 179
Organizing shell pair data                  ... done (  0.1 sec)
Shell pair information
Total number of shell pairs                 ...     16110
Shell pairs after pre-screening             ...     11589
Total number of primitive shell pairs       ...     54315
Primitive shell pairs kept                  ...     25745
          la=0 lb=0:   3969 shell pairs
          la=1 lb=0:   4439 shell pairs
          la=1 lb=1:   1272 shell pairs
          la=2 lb=0:   1073 shell pairs
          la=2 lb=1:    612 shell pairs
          la=2 lb=2:     85 shell pairs
          la=3 lb=0:     76 shell pairs
          la=3 lb=1:     48 shell pairs
          la=3 lb=2:     14 shell pairs
          la=3 lb=3:      1 shell pairs

Calculating one electron integrals          ... done (  0.0 sec)
Calculating RI/J V-Matrix + Cholesky decomp.... done (  0.0 sec)
Calculating Nuclear repulsion               ... done (  0.0 sec) ENN=   1520.838687209335 Eh

SHARK setup successfully completed in   0.3 seconds

Maximum memory used throughout the entire GTOINT-calculation: 25.5 MB


           ************************************************************
           *        Program running with 8 parallel MPI-processes     *
           *              working on a common directory               *
           ************************************************************
-------------------------------------------------------------------------------
                                 ORCA SCF
-------------------------------------------------------------------------------

------------
SCF SETTINGS
------------
Hamiltonian:
 Density Functional     Method          .... DFT(GTOs)
 Exchange Functional    Exchange        .... B88
   X-Alpha parameter    XAlpha          ....  0.666667
   Becke's b parameter  XBeta           ....  0.004200
 Correlation Functional Correlation     .... LYP
 LDA part of GGA corr.  LDAOpt          .... VWN-5
 Gradients option       PostSCFGGA      .... off
 Hybrid DFT is turned on
   Fraction HF Exchange ScalHFX         ....  0.200000
   Scaling of DF-GGA-X  ScalDFX         ....  0.720000
   Scaling of DF-GGA-C  ScalDFC         ....  0.810000
   Scaling of DF-LDA-C  ScalLDAC        ....  1.000000
   Perturbative correction              ....  0.000000
   Density functional embedding theory  .... OFF
   NL short-range parameter             ....  4.800000
 RI-approximation to the Coulomb term is turned on
   Number of AuxJ basis functions       .... 768
   RIJ-COSX (HFX calculated with COS-X)).... on


General Settings:
 Integral files         IntName         .... input_43
 Hartree-Fock type      HFTyp           .... UHF
 Total Charge           Charge          ....   -2
 Multiplicity           Mult            ....    2
 Number of Electrons    NEL             ....  145
 Basis Dimension        Dim             ....  353
 Nuclear Repulsion      ENuc            ....   1520.8386872093 Eh

Convergence Acceleration:
 DIIS                   CNVDIIS         .... on
   Start iteration      DIISMaxIt       ....    12
   Startup error        DIISStart       ....  0.200000
   # of expansion vecs  DIISMaxEq       ....     5
   Bias factor          DIISBfac        ....   1.050
   Max. coefficient     DIISMaxC        ....  10.000
 Trust-Rad. Augm. Hess. CNVTRAH         .... auto
   Auto Start mean grad. ratio tolernc. ....  1.125000
   Auto Start start iteration           ....    20
   Auto Start num. interpolation iter.  ....    10
   Max. Number of Micro iterations      ....    16
   Max. Number of Macro iterations      .... Maxiter - #DIIS iter
   Number of Davidson start vectors     ....     2
   Converg. threshold I  (grad. norm)   ....   5.000e-05
   Converg. threshold II (energy diff.) ....   1.000e-06
   Grad. Scal. Fac. for Micro threshold ....   0.100
   Minimum threshold for Micro iter.    ....   0.010
   NR start threshold (gradient norm)   ....   0.001
   Initial trust radius                 ....   0.400
   Minimum AH scaling param. (alpha)    ....   1.000
   Maximum AH scaling param. (alpha)    .... 1000.000
   Orbital update algorithm             .... Taylor
   White noise on init. David. guess    .... on
   Maximum white noise                  ....   0.010
   Quad. conv. algorithm                .... NR
 SOSCF                  CNVSOSCF        .... off
 Level Shifting         CNVShift        .... on
   Level shift para.    LevelShift      ....    0.2500
   Turn off err/grad.   ShiftErr        ....    0.0010
 Zerner damping         CNVZerner       .... off
 Static damping         CNVDamp         .... on
   Fraction old density DampFac         ....    0.7000
   Max. Damping (<1)    DampMax         ....    0.9800
   Min. Damping (>=0)   DampMin         ....    0.0000
   Turn off err/grad.   DampErr         ....    0.1000
 Fernandez-Rico         CNVRico         .... off

SCF Procedure:
 Maximum # iterations   MaxIter         ....   125
 SCF integral mode      SCFMode         .... Direct
   Integral package                     .... SHARK and LIBINT hybrid scheme
 Reset frequency        DirectResetFreq ....    20
 Integral Threshold     Thresh          ....  1.000e-10 Eh
 Primitive CutOff       TCut            ....  1.000e-11 Eh

Convergence Tolerance:
 Convergence Check Mode ConvCheckMode   .... Total+1el-Energy
 Convergence forced     ConvForced      .... 0
 Energy Change          TolE            ....  1.000e-06 Eh
 1-El. energy change                    ....  1.000e-03 Eh
 DIIS Error             TolErr          ....  1.000e-06


Diagonalization of the overlap matrix:
Smallest eigenvalue                        ... 2.799e-04
Time for diagonalization                   ...    0.046 sec
Threshold for overlap eigenvalues          ... 1.000e-08
Number of eigenvalues below threshold      ... 0
Time for construction of square roots      ...    0.039 sec
Total time needed                          ...    0.086 sec

Time for model grid setup =    0.175 sec

------------------------------
INITIAL GUESS: MODEL POTENTIAL
------------------------------
Loading Hartree-Fock densities                     ... done
Calculating cut-offs                               ... done
Initializing the effective Hamiltonian             ... done
Setting up the integral package (SHARK)            ... done
Starting the Coulomb interaction                   ... done (   0.1 sec)
Reading the grid                                   ... done
Mapping shells                                     ... done
Starting the XC term evaluation                    ... done (   0.1 sec)
  promolecular density results
     # of electrons  =    142.994795560
     EX              =   -186.843693923
     EC              =     -5.515075764
     EX+EC           =   -192.358769687
Transforming the Hamiltonian                       ... done (   0.0 sec)
Diagonalizing the Hamiltonian                      ... done (   0.0 sec)
Back transforming the eigenvectors                 ... done (   0.0 sec)
Now organizing SCF variables                       ... done
                      ------------------
                      INITIAL GUESS DONE (   0.4 sec)
                      ------------------
-------------------
DFT GRID GENERATION
-------------------

General Integration Accuracy     IntAcc      ... 4.388
Radial Grid Type                 RadialGrid  ... OptM3 with GC (2021)
Angular Grid (max. ang.)         AngularGrid ... 4 (Lebedev-302)
Angular grid pruning method      GridPruning ... 4 (adaptive)
Weight generation scheme         WeightScheme... Becke
Basis function cutoff            BFCut       ... 1.0000e-10
Integration weight cutoff        WCut        ... 1.0000e-14
Angular grids for H and He will be reduced by one unit
Partially contracted basis set               ... off
Rotationally invariant grid construction     ... off

Total number of grid points                  ...   131056
Total number of batches                      ...     2061
Average number of points per batch           ...       63
Average number of grid points per atom       ...     5461
Time for grid setup =    0.904 sec

--------------------
COSX GRID GENERATION
--------------------

GRIDX 1
-------
General Integration Accuracy     IntAcc      ... 3.816
Radial Grid Type                 RadialGrid  ... OptM3 with GC (2021)
Angular Grid (max. ang.)         AngularGrid ... 1 (Lebedev-50)
Angular grid pruning method      GridPruning ... 4 (adaptive)
Weight generation scheme         WeightScheme... Becke
Basis function cutoff            BFCut       ... 1.0000e-10
Integration weight cutoff        WCut        ... 1.0000e-14
Angular grids for H and He will be reduced by one unit
Partially contracted basis set               ... on
Rotationally invariant grid construction     ... off

Total number of grid points                  ...    16426
Total number of batches                      ...      268
Average number of points per batch           ...       61
Average number of grid points per atom       ...      684
UseSFitting                                  ... on

GRIDX 2
-------
General Integration Accuracy     IntAcc      ... 4.020
Radial Grid Type                 RadialGrid  ... OptM3 with GC (2021)
Angular Grid (max. ang.)         AngularGrid ... 2 (Lebedev-110)
Angular grid pruning method      GridPruning ... 4 (adaptive)
Weight generation scheme         WeightScheme... Becke
Basis function cutoff            BFCut       ... 1.0000e-10
Integration weight cutoff        WCut        ... 1.0000e-14
Angular grids for H and He will be reduced by one unit
Partially contracted basis set               ... on
Rotationally invariant grid construction     ... off

Total number of grid points                  ...    34390
Total number of batches                      ...      550
Average number of points per batch           ...       62
Average number of grid points per atom       ...     1433
UseSFitting                                  ... on

GRIDX 3
-------
General Integration Accuracy     IntAcc      ... 4.338
Radial Grid Type                 RadialGrid  ... OptM3 with GC (2021)
Angular Grid (max. ang.)         AngularGrid ... 3 (Lebedev-194)
Angular grid pruning method      GridPruning ... 4 (adaptive)
Weight generation scheme         WeightScheme... Becke
Basis function cutoff            BFCut       ... 1.0000e-10
Integration weight cutoff        WCut        ... 1.0000e-14
Angular grids for H and He will be reduced by one unit
Partially contracted basis set               ... on
Rotationally invariant grid construction     ... off

Total number of grid points                  ...    77386
Total number of batches                      ...     1223
Average number of points per batch           ...       63
Average number of grid points per atom       ...     3224
UseSFitting                                  ... on

Time for X-Grid setup             =    0.727 sec

--------------
SCF ITERATIONS
--------------
ITER       Energy         Delta-E        Max-DP      RMS-DP      [F,P]     Damp
               ***  Starting incremental Fock matrix formation  ***
  0  -2847.0604496698   0.000000000000 0.07363432  0.00108682  0.2291885 0.7000
  1  -2847.2862928359  -0.225843166084 0.09317722  0.00106805  0.1558487 0.7000
                               ***Turning on DIIS***
  2  -2847.4269943342  -0.140701498357 0.06174259  0.00065345  0.1089901 0.7000
  3  -2847.5001951385  -0.073200804238 0.10287769  0.00097778  0.0771115 0.0000
  4  -2847.6729844351  -0.172789296628 0.05126816  0.00049389  0.0099910 0.0000
  5  -2847.6780943127  -0.005109877644 0.01132926  0.00013658  0.0093669 0.0000
  6  -2847.6790983812  -0.001004068482 0.00604551  0.00006708  0.0035131 0.0000
  7  -2847.6793128653  -0.000214484106 0.00319545  0.00003553  0.0014782 0.0000
  8  -2847.6793957488  -0.000082883435 0.00272064  0.00002747  0.0012071 0.0000
  9  -2847.6794511377  -0.000055388917 0.00394710  0.00004544  0.0007304 0.0000
               *** Restarting incremental Fock matrix formation ***
                                   *** Resetting DIIS ***
 10  -2847.6794920897  -0.000040952056 0.00084002  0.00001398  0.0005279 0.0000
 11  -2847.6795011351  -0.000009045354 0.00036765  0.00000658  0.0009343 0.0000
 12  -2847.6795065778  -0.000005442696 0.00039947  0.00000601  0.0005095 0.0000
 13  -2847.6795081987  -0.000001620917 0.00034546  0.00000515  0.0005979 0.0000
 14  -2847.6795126160  -0.000004417306 0.00031714  0.00000606  0.0001764 0.0000
 15  -2847.6795143125  -0.000001696500 0.00010079  0.00000183  0.0000667 0.0000
 16  -2847.6795144155  -0.000000103025 0.00004699  0.00000098  0.0000628 0.0000
 17  -2847.6795144834  -0.000000067908 0.00005154  0.00000053  0.0000234 0.0000
                 **** Energy Check signals convergence ****

               *****************************************************
               *                     SUCCESS                       *
               *           SCF CONVERGED AFTER  18 CYCLES          *
               *****************************************************

Old exchange energy                            =    -37.594374852 Eh
New exchange energy                            =    -37.594400960 Eh
Exchange energy change after final integration =     -0.000026108 Eh
Total energy after final integration           =  -2847.679540679 Eh
Final COS-X integration done in                =     5.572 sec

----------------
TOTAL SCF ENERGY
----------------

Total Energy       :        -2847.67954068 Eh          -77489.29978 eV

Components:
Nuclear Repulsion  :         1520.83868721 Eh           41384.12461 eV
Electronic Energy  :        -4368.51822789 Eh         -118873.42439 eV
One Electron Energy:        -6992.37296273 Eh         -190272.14156 eV
Two Electron Energy:         2623.85473484 Eh           71398.71718 eV
Max COSX asymmetry :            0.00000368 Eh               0.00010 eV

Virial components:
Potential Energy   :        -5688.44187733 Eh         -154790.37287 eV
Kinetic Energy     :         2840.76233665 Eh           77301.07309 eV
Virial Ratio       :            2.00243498


DFT components:
N(Alpha)           :       72.999928047743 electrons
N(Beta)            :       71.999932234849 electrons
N(Total)           :      144.999860282592 electrons
E(X)               :     -149.497892522677 Eh       
E(C)               :       -6.524091537825 Eh       
E(XC)              :     -156.021984060502 Eh       
DFET-embed. en.    :        0.000000000000 Eh       

---------------
SCF CONVERGENCE
---------------

  Last Energy change         ...   -8.7647e-08  Tolerance :   1.0000e-06
  Last MAX-Density change    ...    0.0000e+00  Tolerance :   1.0000e-05
  Last RMS-Density change    ...    0.0000e+00  Tolerance :   1.0000e-06
  Last DIIS Error            ...    4.4074e-05  Tolerance :   1.0000e-06

             **** THE GBW FILE WAS UPDATED (input_43.gbw) ****
             **** DENSITY input_43.scfp WAS UPDATED ****
             **** ENERGY FILE WAS UPDATED (input_43.en.tmp) ****
----------------------
UHF SPIN CONTAMINATION
----------------------

Warning: in a DFT calculation there is little theoretical justification to 
         calculate <S**2> as in Hartree-Fock theory. We will do it anyways
         but you should keep in mind that the values have only limited relevance

Expectation value of <S**2>     :     0.766022
Ideal value S*(S+1) for S=0.5   :     0.750000
Deviation                       :     0.016022

             **** THE GBW FILE WAS UPDATED (input_43.gbw) ****
             **** DENSITY input_43.scfp WAS UPDATED ****
----------------
ORBITAL ENERGIES
----------------
                 SPIN UP ORBITALS
  NO   OCC          E(Eh)            E(eV) 
   0   1.0000    -196.607799     -5349.9702 
   1   1.0000     -88.569712     -2410.1044 
   2   1.0000     -88.562952     -2409.9204 
   3   1.0000     -88.560099     -2409.8428 
   4   1.0000     -88.552254     -2409.6293 
   5   1.0000     -21.983028      -598.1886 
   6   1.0000     -18.824779      -512.2483 
   7   1.0000     -18.490810      -503.1605 
   8   1.0000     -18.483657      -502.9659 
   9   1.0000     -18.483558      -502.9632 
  10   1.0000      -9.943843      -270.5857 
  11   1.0000      -9.941540      -270.5231 
  12   1.0000      -9.940469      -270.4939 
  13   1.0000      -9.936809      -270.3943 
  14   1.0000      -9.936126      -270.3757 
  15   1.0000      -9.929670      -270.2001 
  16   1.0000      -7.623769      -207.4533 
  17   1.0000      -7.616702      -207.2610 
  18   1.0000      -7.614490      -207.2008 
  19   1.0000      -7.606693      -206.9886 
  20   1.0000      -5.589290      -152.0923 
  21   1.0000      -5.582604      -151.9104 
  22   1.0000      -5.582118      -151.8972 
  23   1.0000      -5.580822      -151.8619 
  24   1.0000      -5.579903      -151.8369 
  25   1.0000      -5.575525      -151.7177 
  26   1.0000      -5.573923      -151.6741 
  27   1.0000      -5.573502      -151.6627 
  28   1.0000      -5.571683      -151.6132 
  29   1.0000      -5.571449      -151.6068 
  30   1.0000      -5.565985      -151.4582 
  31   1.0000      -5.563895      -151.4013 
  32   1.0000      -2.375623       -64.6440 
  33   1.0000      -1.418118       -38.5889 
  34   1.0000      -1.403962       -38.2037 
  35   1.0000      -1.403088       -38.1800 
  36   1.0000      -0.586834       -15.9686 
  37   1.0000      -0.553205       -15.0535 
  38   1.0000      -0.552196       -15.0260 
  39   1.0000      -0.470495       -12.8028 
  40   1.0000      -0.465184       -12.6583 
  41   1.0000      -0.407565       -11.0904 
  42   1.0000      -0.398585       -10.8461 
  43   1.0000      -0.338781        -9.2187 
  44   1.0000      -0.329341        -8.9618 
  45   1.0000      -0.305581        -8.3153 
  46   1.0000      -0.279151        -7.5961 
  47   1.0000      -0.211851        -5.7648 
  48   1.0000      -0.207793        -5.6543 
  49   1.0000      -0.202765        -5.5175 
  50   1.0000      -0.198663        -5.4059 
  51   1.0000      -0.162486        -4.4215 
  52   1.0000      -0.150298        -4.0898 
  53   1.0000      -0.112196        -3.0530 
  54   1.0000      -0.107468        -2.9243 
  55   1.0000      -0.106408        -2.8955 
  56   1.0000      -0.098850        -2.6899 
  57   1.0000      -0.093745        -2.5509 
  58   1.0000      -0.070159        -1.9091 
  59   1.0000      -0.063290        -1.7222 
  60   1.0000      -0.053076        -1.4443 
  61   1.0000      -0.045665        -1.2426 
  62   1.0000      -0.043211        -1.1758 
  63   1.0000      -0.022418        -0.6100 
  64   1.0000      -0.001591        -0.0433 
  65   1.0000       0.024982         0.6798 
  66   1.0000       0.030707         0.8356 
  67   1.0000       0.035073         0.9544 
  68   1.0000       0.047555         1.2940 
  69   1.0000       0.053186         1.4473 
  70   1.0000       0.061749         1.6803 
  71   1.0000       0.071719         1.9516 
  72   1.0000       0.082235         2.2377 
  73   0.0000       0.233849         6.3634 
  74   0.0000       0.244881         6.6636 
  75   0.0000       0.248005         6.7486 
  76   0.0000       0.251024         6.8307 
  77   0.0000       0.256475         6.9790 
  78   0.0000       0.263090         7.1591 
  79   0.0000       0.277447         7.5497 
  80   0.0000       0.288155         7.8411 
  81   0.0000       0.291916         7.9434 
  82   0.0000       0.294672         8.0184 
  83   0.0000       0.298060         8.1106 
  84   0.0000       0.304759         8.2929 
  85   0.0000       0.311644         8.4803 
  86   0.0000       0.316400         8.6097 
  87   0.0000       0.323635         8.8066 
  88   0.0000       0.330311         8.9882 
  89   0.0000       0.332309         9.0426 
  90   0.0000       0.352352         9.5880 
  91   0.0000       0.356812         9.7093 
  92   0.0000       0.359561         9.7841 
  93   0.0000       0.374079        10.1792 
  94   0.0000       0.377202        10.2642 
  95   0.0000       0.395627        10.7656 
  96   0.0000       0.406464        11.0605 
  97   0.0000       0.410531        11.1711 
  98   0.0000       0.416294        11.3279 
  99   0.0000       0.428926        11.6717 
 100   0.0000       0.442442        12.0395 
 101   0.0000       0.446819        12.1586 
 102   0.0000       0.450981        12.2718 
 103   0.0000       0.454468        12.3667 
 104   0.0000       0.466445        12.6926 
 105   0.0000       0.470158        12.7937 
 106   0.0000       0.483775        13.1642 
 107   0.0000       0.490554        13.3487 
 108   0.0000       0.494505        13.4562 
 109   0.0000       0.509059        13.8522 
 110   0.0000       0.520767        14.1708 
 111   0.0000       0.529633        14.4121 
 112   0.0000       0.537172        14.6172 
 113   0.0000       0.546581        14.8732 
 114   0.0000       0.554005        15.0752 
 115   0.0000       0.559943        15.2368 
 116   0.0000       0.576974        15.7003 
 117   0.0000       0.578288        15.7360 
 118   0.0000       0.589301        16.0357 
 119   0.0000       0.591694        16.1008 
 120   0.0000       0.604918        16.4607 
 121   0.0000       0.607182        16.5223 
 122   0.0000       0.617373        16.7996 
 123   0.0000       0.629784        17.1373 
 124   0.0000       0.630067        17.1450 
 125   0.0000       0.639698        17.4071 
 126   0.0000       0.643090        17.4994 
 127   0.0000       0.648190        17.6381 
 128   0.0000       0.656877        17.8745 
 129   0.0000       0.661767        18.0076 
 130   0.0000       0.665795        18.1172 
 131   0.0000       0.667301        18.1582 
 132   0.0000       0.674651        18.3582 
 133   0.0000       0.675983        18.3944 
 134   0.0000       0.686070        18.6689 
 135   0.0000       0.688287        18.7292 
 136   0.0000       0.697932        18.9917 
 137   0.0000       0.701171        19.0798 
 138   0.0000       0.707463        19.2510 
 139   0.0000       0.712582        19.3903 
 140   0.0000       0.722370        19.6567 
 141   0.0000       0.724959        19.7271 
 142   0.0000       0.737909        20.0795 
 143   0.0000       0.740511        20.1503 
 144   0.0000       0.755761        20.5653 
 145   0.0000       0.772187        21.0123 
 146   0.0000       0.781346        21.2615 
 147   0.0000       0.801674        21.8147 
 148   0.0000       0.808561        22.0021 
 149   0.0000       0.818418        22.2703 
 150   0.0000       0.833659        22.6850 
 151   0.0000       0.834919        22.7193 
 152   0.0000       0.847087        23.0504 
 153   0.0000       0.874027        23.7835 
 154   0.0000       0.899581        24.4789 
 155   0.0000       0.917538        24.9675 
 156   0.0000       0.920234        25.0408 
 157   0.0000       0.954954        25.9856 
 158   0.0000       0.982366        26.7315 
 159   0.0000       0.993669        27.0391 
 160   0.0000       1.005033        27.3483 
 161   0.0000       1.005746        27.3677 
 162   0.0000       1.025208        27.8973 
 163   0.0000       1.029757        28.0211 
 164   0.0000       1.037376        28.2284 
 165   0.0000       1.044327        28.4176 
 166   0.0000       1.060541        28.8588 
 167   0.0000       1.092071        29.7168 
 168   0.0000       1.093708        29.7613 
 169   0.0000       1.102130        29.9905 
 170   0.0000       1.132299        30.8114 
 171   0.0000       1.144341        31.1391 
 172   0.0000       1.153619        31.3916 
 173   0.0000       1.159188        31.5431 
 174   0.0000       1.169201        31.8156 
 175   0.0000       1.206194        32.8222 
 176   0.0000       1.250683        34.0328 
 177   0.0000       1.267889        34.5010 
 178   0.0000       1.288262        35.0554 
 179   0.0000       1.297065        35.2949 
 180   0.0000       1.312129        35.7048 
 181   0.0000       1.346263        36.6337 
 182   0.0000       1.356302        36.9069 
 183   0.0000       1.378522        37.5115 
 184   0.0000       1.430485        38.9255 
 185   0.0000       1.433678        39.0124 
 186   0.0000       1.443815        39.2882 
 187   0.0000       1.449039        39.4304 
 188   0.0000       1.472664        40.0732 
 189   0.0000       1.527617        41.5686 
 190   0.0000       1.530583        41.6493 
 191   0.0000       1.538550        41.8661 
 192   0.0000       1.544419        42.0258 
 193   0.0000       1.550080        42.1798 
 194   0.0000       1.558876        42.4192 
 195   0.0000       1.566805        42.6349 
 196   0.0000       1.571942        42.7747 
 197   0.0000       1.596343        43.4387 
 198   0.0000       1.611035        43.8385 
 199   0.0000       1.620635        44.0997 
 200   0.0000       1.629490        44.3407 
 201   0.0000       1.641640        44.6713 
 202   0.0000       1.646665        44.8080 
 203   0.0000       1.669498        45.4293 
 204   0.0000       1.681673        45.7606 
 205   0.0000       1.693503        46.0826 
 206   0.0000       1.709716        46.5237 
 207   0.0000       1.715964        46.6937 
 208   0.0000       1.732189        47.1352 
 209   0.0000       1.740120        47.3511 
 210   0.0000       1.748026        47.5662 
 211   0.0000       1.757706        47.8296 
 212   0.0000       1.786968        48.6259 
 213   0.0000       1.800400        48.9914 
 214   0.0000       1.803305        49.0704 
 215   0.0000       1.840956        50.0950 
 216   0.0000       1.850077        50.3431 
 217   0.0000       1.873269        50.9743 
 218   0.0000       1.879466        51.1429 
 219   0.0000       1.889323        51.4111 
 220   0.0000       1.925221        52.3879 
 221   0.0000       1.928539        52.4782 
 222   0.0000       1.935253        52.6609 
 223   0.0000       1.943211        52.8775 
 224   0.0000       1.962129        53.3922 
 225   0.0000       1.990671        54.1689 
 226   0.0000       2.008046        54.6417 
 227   0.0000       2.016191        54.8633 
 228   0.0000       2.035313        55.3837 
 229   0.0000       2.043640        55.6103 
 230   0.0000       2.055371        55.9295 
 231   0.0000       2.058614        56.0177 
 232   0.0000       2.078124        56.5486 
 233   0.0000       2.092546        56.9411 
 234   0.0000       2.100238        57.1504 
 235   0.0000       2.108348        57.3711 
 236   0.0000       2.149368        58.4873 
 237   0.0000       2.152748        58.5792 
 238   0.0000       2.166568        58.9553 
 239   0.0000       2.193565        59.6899 
 240   0.0000       2.215610        60.2898 
 241   0.0000       2.227147        60.6037 
 242   0.0000       2.235987        60.8443 
 243   0.0000       2.246491        61.1301 
 244   0.0000       2.265875        61.6576 
 245   0.0000       2.273274        61.8589 
 246   0.0000       2.278791        62.0091 
 247   0.0000       2.287059        62.2340 
 248   0.0000       2.307885        62.8007 
 249   0.0000       2.322612        63.2015 
 250   0.0000       2.333226        63.4903 
 251   0.0000       2.359093        64.1942 
 252   0.0000       2.374268        64.6071 
 253   0.0000       2.383307        64.8531 
 254   0.0000       2.395224        65.1774 
 255   0.0000       2.435240        66.2663 
 256   0.0000       2.441342        66.4323 
 257   0.0000       2.459507        66.9266 
 258   0.0000       2.518486        68.5315 
 259   0.0000       2.520569        68.5882 
 260   0.0000       2.543164        69.2030 
 261   0.0000       2.558141        69.6105 
 262   0.0000       2.568358        69.8886 
 263   0.0000       2.588296        70.4311 
 264   0.0000       2.600995        70.7767 
 265   0.0000       2.626330        71.4661 
 266   0.0000       2.635705        71.7212 
 267   0.0000       2.667204        72.5783 
 268   0.0000       2.691989        73.2527 
 269   0.0000       2.698671        73.4346 
 270   0.0000       2.712708        73.8165 
 271   0.0000       2.742090        74.6161 
 272   0.0000       2.763279        75.1927 
 273   0.0000       2.770434        75.3873 
 274   0.0000       2.788008        75.8655 
 275   0.0000       2.812902        76.5429 
 276   0.0000       2.848724        77.5177 
 277   0.0000       2.864673        77.9517 
 278   0.0000       2.869658        78.0874 
 279   0.0000       2.894982        78.7765 
 280   0.0000       2.903281        79.0023 
 281   0.0000       2.911467        79.2250 
 282   0.0000       2.924046        79.5673 
 283   0.0000       2.932249        79.7906 
 284   0.0000       2.940806        80.0234 
 285   0.0000       2.949328        80.2553 
 286   0.0000       2.958474        80.5042 
 287   0.0000       2.973217        80.9054 
 288   0.0000       2.979402        81.0737 
 289   0.0000       2.987998        81.3075 
 290   0.0000       3.028789        82.4175 
 291   0.0000       3.031879        82.5016 
 292   0.0000       3.044759        82.8521 
 293   0.0000       3.052398        83.0600 
 294   0.0000       3.075225        83.6811 
 295   0.0000       3.105671        84.5096 
 296   0.0000       3.145814        85.6020 
 297   0.0000       3.255356        88.5827 
 298   0.0000       3.277090        89.1741 
 299   0.0000       3.372918        91.7818 
 300   0.0000       3.380712        91.9939 
 301   0.0000       3.446119        93.7737 
 302   0.0000       3.471768        94.4716 
 303   0.0000       3.485109        94.8346 
 304   0.0000       3.498841        95.2083 
 305   0.0000       3.547839        96.5416 
 306   0.0000       3.554638        96.7266 
 307   0.0000       3.600551        97.9760 
 308   0.0000       3.629595        98.7663 
 309   0.0000       3.636853        98.9638 
 310   0.0000       3.648403        99.2781 
 311   0.0000       3.654120        99.4337 
 312   0.0000       3.690834       100.4327 
 313   0.0000       3.859558       105.0239 
 314   0.0000       3.887916       105.7956 
 315   0.0000       3.917194       106.5923 
 316   0.0000       4.043363       110.0255 
 317   0.0000       4.262376       115.9851 
 318   0.0000       4.577042       124.5476 
 319   0.0000       4.593083       124.9841 
 320   0.0000       4.595693       125.0552 
 321   0.0000       4.618459       125.6746 
 322   0.0000       4.646634       126.4413 
 323   0.0000       4.646959       126.4502 
 324   0.0000       5.209232       141.7504 
 325   0.0000       7.038020       191.5143 
 326   0.0000       7.096152       193.0961 
 327   0.0000       7.158351       194.7886 
 328   0.0000      18.870171       513.4835 
 329   0.0000      18.883465       513.8452 
 330   0.0000      19.006068       517.1814 
 331   0.0000      19.051390       518.4147 
 332   0.0000      19.839032       539.8475 
 333   0.0000      22.140659       602.4780 
 334   0.0000      22.186446       603.7239 
 335   0.0000      22.217655       604.5731 
 336   0.0000      22.231382       604.9467 
 337   0.0000      22.334779       607.7602 
 338   0.0000      22.347931       608.1181 
 339   0.0000      43.700102      1189.1402 
 340   0.0000     128.773260      3504.0985 
 341   0.0000     158.423737      4310.9290 
 342   0.0000     158.473648      4312.2872 
 343   0.0000     158.511956      4313.3296 
 344   0.0000     555.926866     15127.5391 
 345   0.0000    1893.325917     51520.0174 
 346   0.0000    6235.833432    169685.6543 
 347   0.0000   22016.258905    599092.8621 
 348   0.0000   90690.806947   2467822.3187 
 349   0.0000   462517.545337   12585742.2554 
 350   0.0000   1711386.100213   46569183.3183 
 351   0.0000   5079093.304111   138209155.2225 
 352   0.0000   14523636.819755   395208249.8647 

                 SPIN DOWN ORBITALS
  NO   OCC          E(Eh)            E(eV) 
   0   1.0000    -196.607940     -5349.9740 
   1   1.0000     -88.569857     -2410.1083 
   2   1.0000     -88.563128     -2409.9252 
   3   1.0000     -88.560200     -2409.8456 
   4   1.0000     -88.552243     -2409.6290 
   5   1.0000     -21.967964      -597.7787 
   6   1.0000     -18.828306      -512.3443 
   7   1.0000     -18.485580      -503.0182 
   8   1.0000     -18.467599      -502.5289 
   9   1.0000     -18.467086      -502.5150 
  10   1.0000      -9.943656      -270.5806 
  11   1.0000      -9.941373      -270.5185 
  12   1.0000      -9.940405      -270.4922 
  13   1.0000      -9.936774      -270.3934 
  14   1.0000      -9.936000      -270.3723 
  15   1.0000      -9.929690      -270.2006 
  16   1.0000      -7.623906      -207.4570 
  17   1.0000      -7.616874      -207.2657 
  18   1.0000      -7.614586      -207.2034 
  19   1.0000      -7.606684      -206.9884 
  20   1.0000      -5.589424      -152.0960 
  21   1.0000      -5.582996      -151.9211 
  22   1.0000      -5.582282      -151.9016 
  23   1.0000      -5.580924      -151.8647 
  24   1.0000      -5.580025      -151.8402 
  25   1.0000      -5.575979      -151.7301 
  26   1.0000      -5.574055      -151.6778 
  27   1.0000      -5.573900      -151.6735 
  28   1.0000      -5.571713      -151.6140 
  29   1.0000      -5.571374      -151.6048 
  30   1.0000      -5.566363      -151.4685 
  31   1.0000      -5.563441      -151.3889 
  32   1.0000      -2.330646       -63.4201 
  33   1.0000      -1.398984       -38.0683 
  34   1.0000      -1.342285       -36.5254 
  35   1.0000      -1.340191       -36.4685 
  36   1.0000      -0.594433       -16.1753 
  37   1.0000      -0.553074       -15.0499 
  38   1.0000      -0.552096       -15.0233 
  39   1.0000      -0.470440       -12.8013 
  40   1.0000      -0.465078       -12.6554 
  41   1.0000      -0.407624       -11.0920 
  42   1.0000      -0.398762       -10.8509 
  43   1.0000      -0.338916        -9.2224 
  44   1.0000      -0.329728        -8.9724 
  45   1.0000      -0.305554        -8.3146 
  46   1.0000      -0.279101        -7.5947 
  47   1.0000      -0.211807        -5.7636 
  48   1.0000      -0.207735        -5.6528 
  49   1.0000      -0.202577        -5.5124 
  50   1.0000      -0.198519        -5.4020 
  51   1.0000      -0.162352        -4.4178 
  52   1.0000      -0.150105        -4.0846 
  53   1.0000      -0.112179        -3.0526 
  54   1.0000      -0.107362        -2.9215 
  55   1.0000      -0.106237        -2.8908 
  56   1.0000      -0.098664        -2.6848 
  57   1.0000      -0.092347        -2.5129 
  58   1.0000      -0.068677        -1.8688 
  59   1.0000      -0.062146        -1.6911 
  60   1.0000      -0.052303        -1.4232 
  61   1.0000      -0.047351        -1.2885 
  62   1.0000      -0.045318        -1.2332 
  63   1.0000      -0.022299        -0.6068 
  64   1.0000       0.002929         0.0797 
  65   1.0000       0.025947         0.7061 
  66   1.0000       0.033431         0.9097 
  67   1.0000       0.042515         1.1569 
  68   1.0000       0.048150         1.3102 
  69   1.0000       0.059635         1.6228 
  70   1.0000       0.071661         1.9500 
  71   1.0000       0.072411         1.9704 
  72   0.0000       0.232460         6.3256 
  73   0.0000       0.249951         6.8015 
  74   0.0000       0.254456         6.9241 
  75   0.0000       0.258990         7.0475 
  76   0.0000       0.263158         7.1609 
  77   0.0000       0.265342         7.2203 
  78   0.0000       0.272579         7.4173 
  79   0.0000       0.281661         7.6644 
  80   0.0000       0.288679         7.8554 
  81   0.0000       0.292663         7.9638 
  82   0.0000       0.295928         8.0526 
  83   0.0000       0.299180         8.1411 
  84   0.0000       0.305162         8.3039 
  85   0.0000       0.313427         8.5288 
  86   0.0000       0.318982         8.6800 
  87   0.0000       0.324852         8.8397 
  88   0.0000       0.331566         9.0224 
  89   0.0000       0.332743         9.0544 
  90   0.0000       0.352593         9.5946 
  91   0.0000       0.357125         9.7179 
  92   0.0000       0.362330         9.8595 
  93   0.0000       0.374410        10.1882 
  94   0.0000       0.377499        10.2723 
  95   0.0000       0.396240        10.7822 
  96   0.0000       0.407021        11.0756 
  97   0.0000       0.412509        11.2249 
  98   0.0000       0.417512        11.3611 
  99   0.0000       0.429734        11.6937 
 100   0.0000       0.442748        12.0478 
 101   0.0000       0.448113        12.1938 
 102   0.0000       0.451352        12.2819 
 103   0.0000       0.455195        12.3865 
 104   0.0000       0.468830        12.7575 
 105   0.0000       0.471249        12.8233 
 106   0.0000       0.484664        13.1884 
 107   0.0000       0.491057        13.3623 
 108   0.0000       0.495521        13.4838 
 109   0.0000       0.511053        13.9065 
 110   0.0000       0.521883        14.2012 
 111   0.0000       0.533101        14.5064 
 112   0.0000       0.537827        14.6350 
 113   0.0000       0.548875        14.9356 
 114   0.0000       0.555149        15.1064 
 115   0.0000       0.563242        15.3266 
 116   0.0000       0.577269        15.7083 
 117   0.0000       0.578344        15.7375 
 118   0.0000       0.591470        16.0947 
 119   0.0000       0.593182        16.1413 
 120   0.0000       0.606562        16.5054 
 121   0.0000       0.607566        16.5327 
 122   0.0000       0.617694        16.8083 
 123   0.0000       0.629885        17.1400 
 124   0.0000       0.630411        17.1543 
 125   0.0000       0.641467        17.4552 
 126   0.0000       0.643462        17.5095 
 127   0.0000       0.648428        17.6446 
 128   0.0000       0.656958        17.8767 
 129   0.0000       0.662593        18.0301 
 130   0.0000       0.666133        18.1264 
 131   0.0000       0.668005        18.1773 
 132   0.0000       0.674837        18.3633 
 133   0.0000       0.676028        18.3957 
 134   0.0000       0.687425        18.7058 
 135   0.0000       0.689363        18.7585 
 136   0.0000       0.698752        19.0140 
 137   0.0000       0.701695        19.0941 
 138   0.0000       0.708915        19.2906 
 139   0.0000       0.712893        19.3988 
 140   0.0000       0.722710        19.6659 
 141   0.0000       0.725245        19.7349 
 142   0.0000       0.738250        20.0888 
 143   0.0000       0.741164        20.1681 
 144   0.0000       0.755808        20.5666 
 145   0.0000       0.772854        21.0304 
 146   0.0000       0.781819        21.2744 
 147   0.0000       0.801766        21.8172 
 148   0.0000       0.809262        22.0211 
 149   0.0000       0.819207        22.2918 
 150   0.0000       0.834203        22.6998 
 151   0.0000       0.836729        22.7685 
 152   0.0000       0.847867        23.0716 
 153   0.0000       0.872191        23.7335 
 154   0.0000       0.901070        24.5193 
 155   0.0000       0.918193        24.9853 
 156   0.0000       0.922893        25.1132 
 157   0.0000       0.956653        26.0318 
 158   0.0000       0.983757        26.7694 
 159   0.0000       0.994620        27.0650 
 160   0.0000       1.005675        27.3658 
 161   0.0000       1.005873        27.3712 
 162   0.0000       1.025651        27.9094 
 163   0.0000       1.030058        28.0293 
 164   0.0000       1.038322        28.2542 
 165   0.0000       1.044088        28.4111 
 166   0.0000       1.061636        28.8886 
 167   0.0000       1.093511        29.7560 
 168   0.0000       1.096371        29.8338 
 169   0.0000       1.102320        29.9956 
 170   0.0000       1.133192        30.8357 
 171   0.0000       1.150827        31.3156 
 172   0.0000       1.156311        31.4648 
 173   0.0000       1.159497        31.5515 
 174   0.0000       1.171994        31.8916 
 175   0.0000       1.208082        32.8736 
 176   0.0000       1.264545        34.4100 
 177   0.0000       1.270800        34.5802 
 178   0.0000       1.290799        35.1244 
 179   0.0000       1.299265        35.3548 
 180   0.0000       1.314522        35.7700 
 181   0.0000       1.346825        36.6490 
 182   0.0000       1.360563        37.0228 
 183   0.0000       1.388452        37.7817 
 184   0.0000       1.431344        38.9489 
 185   0.0000       1.434065        39.0229 
 186   0.0000       1.449732        39.4492 
 187   0.0000       1.450628        39.4736 
 188   0.0000       1.473876        40.1062 
 189   0.0000       1.527810        41.5738 
 190   0.0000       1.531503        41.6743 
 191   0.0000       1.539107        41.8812 
 192   0.0000       1.545294        42.0496 
 193   0.0000       1.550355        42.1873 
 194   0.0000       1.560145        42.4537 
 195   0.0000       1.567500        42.6538 
 196   0.0000       1.572147        42.7803 
 197   0.0000       1.596724        43.4491 
 198   0.0000       1.611725        43.8573 
 199   0.0000       1.620903        44.1070 
 200   0.0000       1.629875        44.3512 
 201   0.0000       1.642139        44.6849 
 202   0.0000       1.647512        44.8311 
 203   0.0000       1.669969        45.4422 
 204   0.0000       1.683052        45.7982 
 205   0.0000       1.693981        46.0956 
 206   0.0000       1.717441        46.7340 
 207   0.0000       1.718548        46.7641 
 208   0.0000       1.733824        47.1798 
 209   0.0000       1.747090        47.5407 
 210   0.0000       1.751882        47.6711 
 211   0.0000       1.760595        47.9082 
 212   0.0000       1.788324        48.6628 
 213   0.0000       1.804072        49.0913 
 214   0.0000       1.806667        49.1619 
 215   0.0000       1.841094        50.0987 
 216   0.0000       1.850762        50.3618 
 217   0.0000       1.875116        51.0245 
 218   0.0000       1.880136        51.1611 
 219   0.0000       1.889974        51.4288 
 220   0.0000       1.925533        52.3964 
 221   0.0000       1.930323        52.5268 
 222   0.0000       1.935443        52.6661 
 223   0.0000       1.944382        52.9093 
 224   0.0000       1.964190        53.4483 
 225   0.0000       1.990883        54.1747 
[...]

Memory available               ... 914.1 MB
Memory needed per perturbation ...  10.7 MB
Perturbations treated per batch... 3
Number of batches              ... 1
     CP-SCF ITERATION   0:   5.0337e-02 (   1.3 sec   0/  3 done)
     CP-SCF ITERATION   1:   2.8453e-03 (   1.4 sec   0/  3 done)
     CP-SCF ITERATION   2:   9.9174e-04 (   1.4 sec   3/  3 done)
                    *** THE CP-SCF HAS CONVERGED ***

Forming final perturbed densities           ... done
Transforming perturbed density to AO basis  ... done

 Raw HFC matrix (all values in MHz): 
 -----------------------------------
                -1.7363               0.9914              -0.9770
                 0.9866              -0.8185              -1.2874
                -0.9630              -1.2891              -1.2025

 A(FC)          -1.2558              -1.2558              -1.2558
 A(SD)           2.2584              -1.0264              -1.2320
 A(ORB+DIA)     -0.0098               0.0077               0.0123    A(PC) =   0.0034
 A(ORB)         -0.0103               0.0080               0.0125    A(PC) =   0.0034
 A(DIA)          0.0005              -0.0003              -0.0002    A(PC) =  -0.0000
             ----------           ----------           ----------
 A(Tot)          0.9928              -2.2746              -2.4755    A(iso)=   -1.2524
 Orientation: 
  X          -0.4537262           -0.3890045           -0.8017531
  Y          -0.6658569            0.7459307            0.0149002
  Z           0.5922560            0.5406134           -0.5974696

Notes:  (1) The A matrix conforms to the "SAI" spin Hamiltonian convention.
        (2) Tensor is right-handed.

 Raw EFG matrix (all values in a.u.**-3):
 -----------------------------------
            -0.1457       0.0029      -0.0064
             0.0029       0.2081      -0.1600
            -0.0064      -0.1600      -0.0624

 V(El)       0.6556       0.6601      -1.3157
 V(Nuc)     -0.7904      -0.8077       1.5981
         ----------   ----------   ----------
 V(Tot)     -0.1348      -0.1476       0.2824 
 Orientation: 
  X      -0.3826948    0.9237910    0.0124441
  Y       0.3934186    0.1507630    0.9069136
  Z       0.8359225    0.3519669   -0.4211328

Note: Tensor is right-handed


 Quadrupole tensor eigenvalues (in MHz;Q= 0.0029 I=  1.0)
  e**2qQ            =     0.189647 MHz 
  e**2qQ/(4I*(2I-1))=     0.047412 MHz 
  eta               =     0.045351
  NOTE: the diagonal representation of the SH term I*Q*I = e**2qQ/(4I(2I-1))*[-(1-eta),-(1+eta),2]

 RHO(0)=      0.440964311 a.u.**-3

 -----------------------------------------------------------
 Nucleus  23H : A:ISTP=    1 I=  0.5 P=533.5514 MHz/au**3
                Q:ISTP=    2 I=  1.0 Q=  0.0029 barn     
 -----------------------------------------------------------
 Solving for nuclear perturbation:
Forming RHS of the CP-SCF equations         ... 
Calc. nucleus orbit integrals (SHARK)       ... done

------------------------------------------------------------------------------
                           ORCA CP-SCF CALCULATION
------------------------------------------------------------------------------

Input orbitals are from        ... input_43.gbw
Input Perturbation             ... input_43.pin.tmp
Wavefunction output            ... input_43.pout.tmp
Perturbation mode              ... Imaginary perturbation
Solver                         ... POPLE
Max. number of iterations      ... 64
Convergence tolerance          ... 1.000e-03
Integral handling              ... Direct
DFT GridXC                     ... 1
COSX GridX                     ... 1
COSX IntAccX                   ... 3.067
COSX Algorithm                 ... Auto
Number of perturbations        ... 3
Number of operators            ... 2
Orbital ranges used for CP-SCF:
 Operator 0:  Orbitals   0... 72  to  73...352
 Operator 1:  Orbitals   0... 71  to  72...352
Variables per perturbation     ... 40672
DFT calculation                         ... on
XC functional terms                     ... off
Hybrid DFT                              ... on
   Exchange mixing (SCF)                ...  0.200
   Exchange mixing (CP-SCF)             ...  0.200
   GGA exch. scaling(SCF)               ...  0.720
   GGA exch. scaling (CP-SCF)           ...  0.720
   GGA corr. scaling (SCF)              ...  0.810
   GGA corr. scaling (CP-SCF)           ...  0.810

CP-SCF GRID
-----------

General Integration Accuracy     IntAcc      ... 3.467
Radial Grid Type                 RadialGrid  ... OptM3 with GC (2021)
Angular Grid (max. ang.)         AngularGrid ... 1 (Lebedev-50)
Angular grid pruning method      GridPruning ... 4 (adaptive)
Weight generation scheme         WeightScheme... Becke
Basis function cutoff            BFCut       ... 1.0000e-10
Integration weight cutoff        WCut        ... 1.0000e-14
Angular grids for H and He will be reduced by one unit
Partially contracted basis set               ... off
Rotationally invariant grid construction     ... off

Total number of grid points                  ...    23531
Total number of batches                      ...      378
Average number of points per batch           ...       62
Average number of grid points per atom       ...      980

CP-SCF GRIDX
------------

General Integration Accuracy     IntAcc      ... 3.067
Radial Grid Type                 RadialGrid  ... OptM3 with GC (2021)
Angular Grid (max. ang.)         AngularGrid ... 1 (Lebedev-50)
Angular grid pruning method      GridPruning ... 4 (adaptive)
Weight generation scheme         WeightScheme... Becke
Basis function cutoff            BFCut       ... 1.0000e-10
Integration weight cutoff        WCut        ... 1.0000e-14
Angular grids for H and He will be reduced by one unit
Partially contracted basis set               ... on
Rotationally invariant grid construction     ... off

Total number of grid points                  ...    10184
Total number of batches                      ...      170
Average number of points per batch           ...       59
Average number of grid points per atom       ...      424

Memory available               ... 913.2 MB
Memory needed per perturbation ...  10.7 MB
Perturbations treated per batch... 3
Number of batches              ... 1
     CP-SCF ITERATION   0:   6.1139e-02 (   1.3 sec   0/  3 done)
     CP-SCF ITERATION   1:   6.0035e-03 (   1.4 sec   0/  3 done)
     CP-SCF ITERATION   2:   1.6089e-03 (   1.4 sec   0/  3 done)
     CP-SCF ITERATION   3:   2.3026e-04 (   1.4 sec   3/  3 done)
                    *** THE CP-SCF HAS CONVERGED ***

Forming final perturbed densities           ... done
Transforming perturbed density to AO basis  ... done

 Raw HFC matrix (all values in MHz): 
 -----------------------------------
                 1.1238               3.7255              -1.6990
                 3.7219               0.8678              -1.8145
                -1.7126              -1.8369              -1.5476

 A(FC)           0.1435               0.1435               0.1435
 A(SD)          -2.5676              -2.9393               5.5069
 A(ORB+DIA)      0.0459               0.0242              -0.0566    A(PC) =   0.0045
 A(ORB)          0.0460               0.0246              -0.0580    A(PC) =   0.0042
 A(DIA)         -0.0001              -0.0003               0.0014    A(PC) =   0.0003
             ----------           ----------           ----------
 A(Tot)         -2.3783              -2.7716               5.5938    A(iso)=    0.1480
 Orientation: 
  X           0.4509605            0.5833227            0.6755511
  Y          -0.0172299           -0.7510523            0.6600179
  Z           0.8923776           -0.3092817           -0.3286444

Notes:  (1) The A matrix conforms to the "SAI" spin Hamiltonian convention.
        (2) Tensor is right-handed.

 Raw EFG matrix (all values in a.u.**-3):
 -----------------------------------
            -0.0955       0.0105       0.0594
             0.0105      -0.0962       0.0373
             0.0594       0.0373       0.1917

 V(El)       0.3406       0.5058      -0.8464
 V(Nuc)     -0.4405      -0.6143       1.0548
         ----------   ----------   ----------
 V(Tot)     -0.0999      -0.1085       0.2084 
 Orientation: 
  X       0.3412615    0.9196567   -0.1943504
  Y       0.9211306   -0.3683827   -0.1257479
  Z      -0.1872402   -0.1361092   -0.9728388

Note: Tensor is right-handed


 Quadrupole tensor eigenvalues (in MHz;Q= 0.0029 I=  1.0)
  e**2qQ            =     0.139907 MHz 
  e**2qQ/(4I*(2I-1))=     0.034977 MHz 
  eta               =     0.041345
  NOTE: the diagonal representation of the SH term I*Q*I = e**2qQ/(4I(2I-1))*[-(1-eta),-(1+eta),2]

 RHO(0)=      0.403987383 a.u.**-3

 -----------------------------------------------------------
 Nucleus   0V : A:ISTP=   51 I=  3.5 P=140.5173 MHz/au**3
                Q:ISTP=   51 I=  3.5 Q= -0.0430 barn     
 -----------------------------------------------------------
 Solving for nuclear perturbation:
Forming RHS of the CP-SCF equations         ... 
Calc. nucleus orbit integrals (SHARK)       ... done

------------------------------------------------------------------------------
                           ORCA CP-SCF CALCULATION
------------------------------------------------------------------------------

Input orbitals are from        ... input_43.gbw
Input Perturbation             ... input_43.pin.tmp
Wavefunction output            ... input_43.pout.tmp
Perturbation mode              ... Imaginary perturbation
Solver                         ... POPLE
Max. number of iterations      ... 64
Convergence tolerance          ... 1.000e-03
Integral handling              ... Direct
DFT GridXC                     ... 1
COSX GridX                     ... 1
COSX IntAccX                   ... 3.067
COSX Algorithm                 ... Auto
Number of perturbations        ... 3
Number of operators            ... 2
Orbital ranges used for CP-SCF:
 Operator 0:  Orbitals   0... 72  to  73...352
 Operator 1:  Orbitals   0... 71  to  72...352
Variables per perturbation     ... 40672
DFT calculation                         ... on
XC functional terms                     ... off
Hybrid DFT                              ... on
   Exchange mixing (SCF)                ...  0.200
   Exchange mixing (CP-SCF)             ...  0.200
   GGA exch. scaling(SCF)               ...  0.720
   GGA exch. scaling (CP-SCF)           ...  0.720
   GGA corr. scaling (SCF)              ...  0.810
   GGA corr. scaling (CP-SCF)           ...  0.810

CP-SCF GRID
-----------

General Integration Accuracy     IntAcc      ... 3.467
Radial Grid Type                 RadialGrid  ... OptM3 with GC (2021)
Angular Grid (max. ang.)         AngularGrid ... 1 (Lebedev-50)
Angular grid pruning method      GridPruning ... 4 (adaptive)
Weight generation scheme         WeightScheme... Becke
Basis function cutoff            BFCut       ... 1.0000e-10
Integration weight cutoff        WCut        ... 1.0000e-14
Angular grids for H and He will be reduced by one unit
Partially contracted basis set               ... off
Rotationally invariant grid construction     ... off

Total number of grid points                  ...    23531
Total number of batches                      ...      378
Average number of points per batch           ...       62
Average number of grid points per atom       ...      980

CP-SCF GRIDX
------------

General Integration Accuracy     IntAcc      ... 3.067
Radial Grid Type                 RadialGrid  ... OptM3 with GC (2021)
Angular Grid (max. ang.)         AngularGrid ... 1 (Lebedev-50)
Angular grid pruning method      GridPruning ... 4 (adaptive)
Weight generation scheme         WeightScheme... Becke
Basis function cutoff            BFCut       ... 1.0000e-10
Integration weight cutoff        WCut        ... 1.0000e-14
Angular grids for H and He will be reduced by one unit
Partially contracted basis set               ... on
Rotationally invariant grid construction     ... off

Total number of grid points                  ...    10184
Total number of batches                      ...      170
Average number of points per batch           ...       59
Average number of grid points per atom       ...      424

Memory available               ... 912.3 MB
Memory needed per perturbation ...  10.7 MB
Perturbations treated per batch... 3
Number of batches              ... 1
     CP-SCF ITERATION   0:   1.2595e+01 (   1.4 sec   0/  3 done)
     CP-SCF ITERATION   1:   2.5853e+00 (   1.4 sec   0/  3 done)
     CP-SCF ITERATION   2:   4.5254e-01 (   1.4 sec   0/  3 done)
     CP-SCF ITERATION   3:   8.3392e-02 (   1.4 sec   0/  3 done)
     CP-SCF ITERATION   4:   2.5082e-02 (   1.4 sec   0/  3 done)
     CP-SCF ITERATION   5:   4.6623e-03 (   1.4 sec   0/  3 done)
     CP-SCF ITERATION   6:   1.0652e-03 (   1.4 sec   2/  3 done)
     CP-SCF ITERATION   7:   2.2823e-04 (   0.9 sec   3/  3 done)
                    *** THE CP-SCF HAS CONVERGED ***

Forming final perturbed densities           ... done
Transforming perturbed density to AO basis  ... done

 Raw HFC matrix (all values in MHz): 
 -----------------------------------
              -281.4110            -132.1898             -56.2676
              -133.4090            -177.6688             -36.2587
               -58.0616             -36.7445             -93.3822

 A(FC)        -172.1428            -172.1428            -172.1428
 A(SD)         103.0380              93.2080            -196.2460
 A(ORB+DIA)     -8.2917              -8.4076             -19.3343    A(PC) = -12.0112
 A(ORB)         -8.2919              -8.4075             -19.3343    A(PC) = -12.0113
 A(DIA)          0.0002              -0.0001               0.0000    A(PC) =   0.0000
             ----------           ----------           ----------
 A(Tot)        -77.3964             -87.3424            -387.7231    A(iso)= -184.1540
 Orientation: 
  X           0.2558467            0.5332805           -0.8063215
  Y           0.0157881           -0.8362757           -0.5480818
  Z          -0.9665884            0.1274946           -0.2223779

Notes:  (1) The A matrix conforms to the "SAI" spin Hamiltonian convention.
        (2) Tensor is right-handed.

 Raw EFG matrix (all values in a.u.**-3):
 -----------------------------------
             0.2033       0.3112       0.1274
             0.3112       0.0200       0.0777
             0.1274       0.0777      -0.2233

 V(El)      -0.1001      -0.3301       0.4302
 V(Nuc)     -0.1086       0.0708       0.0378
         ----------   ----------   ----------
 V(Tot)     -0.2087      -0.2593       0.4679 
 Orientation: 
  X       0.5232683    0.3303997    0.7855102
  Y      -0.8060359   -0.1072758    0.5820636
  Z       0.2765799   -0.9377249    0.2101800

Note: Tensor is right-handed


 Quadrupole tensor eigenvalues (in MHz;Q=-0.0430 I=  3.5)
  e**2qQ            =    -4.727912 MHz 
  e**2qQ/(4I*(2I-1))=    -0.056285 MHz 
  eta               =     0.108170
  NOTE: the diagonal representation of the SH term I*Q*I = e**2qQ/(4I(2I-1))*[-(1-eta),-(1+eta),2]

 RHO(0)=   8115.159386653 a.u.**-3


--------------------------------------------------------------------------------
----------------------------------------------------------------------------
                           ORCA EULER ANGLE PROGRAM
----------------------------------------------------------------------------

Only g-tensor available        -->  using g-tensor as reference tensor

Reference tensor               ...  g

g-tensor ordering              ...  |g_min> --> |gx>
                                    |g_mid> --> |gy>
                                    |g_max> --> |gz>

A- and EFG-tensor ordering     ...  the axes |Ax>, |Qx>, |Ay>, etc. are assigned
                                    such that the Euler rotation is minimal. You
                                    can find the respective eigenvalues as Ax,
                                    EFGx, Ay, etc. in the tables below.
                                    The relation of |Ax>, |Ay>,  etc. to Amin, Amid, etc.
                                    (as printed in the ORCA EPR/NMR CALCULATION Output)
                                    is obtained in the detailed printout.

Euler rotation around          ...  z - y - z
   First rotation              -->  by alpha around z
   Second rotation             -->  by beta around y'
   Third rotation              -->  by gamma around z''
   Positive / Negative angle   -->  clockwise / counterclockwise rotation

Plot EFG-tensors                    (-)
Plot HFC-tensors                    (-)
Detailed Printout                   (-)

-------------------------------------------------------------------------
          Euler rotation of hyperfine tensor to g-tensor
-------------------------------------------------------------------------

-------------------------------------------------------------------
 Atom  |   Alpha    Beta    Gamma   |   Ax       Ay       Az 
       |          [degrees]         |           [MHz]         
-------------------------------------------------------------------
  9H      116.7     24.1   -108.6      -2.00     2.14    -2.19
 10H      155.6     28.0    179.7      -1.33     2.01    -1.26
 11H      -84.4     33.1     85.7      -2.66    -2.31     5.23
 12H       93.7     43.1   -117.5      -0.27     2.23    -0.16
 13H     -135.4     28.4    163.2       2.58    -1.83    -1.48
 14H      -46.7     43.9     20.7      -3.03    -2.86     0.20
 18H      -32.3     29.8     42.4      -2.26    -2.09     1.01
 19H       86.4     36.3   -122.7      -3.38     2.35    -3.05
 20H     -129.2     35.2    108.3       0.21     0.19     2.74
 21H       86.5     37.6    -91.6      -0.34     1.94    -0.30
 22H       32.3     40.4     -1.3      -2.48     0.99    -2.27
 23H      -17.7     29.6    -25.4       5.59    -2.38    -2.77
  0V       47.2     43.3    -63.4    -387.72   -77.40   -87.34
-------------------------------------------------------------------


-------------------------------------------------------------------------------
    Euler rotation of Electric Field Gradient (EFG) tensor to g-tensor
-------------------------------------------------------------------------------

-------------------------------------------------------------------
 Atom  |   Alpha    Beta    Gamma  |   EFGx     EFGy     EFGz
       |          [degrees]        |         [a.u.**-3]       
-------------------------------------------------------------------
  9H       68.7     28.2    -98.7      0.29    -0.15    -0.14
 10H       74.0     28.4    -29.6      0.29    -0.15    -0.14
 11H      -39.8     24.3     76.1      0.28    -0.14    -0.14
 12H      -38.1     43.2     72.2     -0.14    -0.14     0.28
 13H       -5.5     40.7     39.6      0.29    -0.14    -0.15
 14H       52.5     30.2    -12.8     -0.15    -0.14     0.29
 18H       -4.6     27.2      7.6     -0.15    -0.13     0.28
 19H       28.5     42.9     -1.0      0.20    -0.10    -0.11
 20H      147.5     38.2   -167.0     -0.14    -0.14     0.27
 21H      155.3     16.4    179.4     -0.13     0.28    -0.15
 22H      -15.1     44.0     38.4     -0.15     0.28    -0.13
 23H       75.1      9.0   -118.3     -0.10     0.21    -0.11
  0V       54.0     48.3    -73.4      0.47    -0.26    -0.21
-------------------------------------------------------------------


Maximum memory used throughout the entire EPRNMR-calculation: 146.1 MB

Timings for individual modules:

Sum of individual times         ...      574.349 sec (=   9.572 min)
GTO integral calculation        ...        1.214 sec (=   0.020 min)   0.2 %
Spin-Orbit-Coupling Matrices    ...        3.709 sec (=   0.062 min)   0.6 %
SCF iterations                  ...       55.452 sec (=   0.924 min)   9.7 %
EPR/NMR calculation             ...      513.975 sec (=   8.566 min)  89.5 %
                             ****ORCA TERMINATED NORMALLY****
TOTAL RUN TIME: 0 days 0 hours 9 minutes 35 seconds 436 msec
