
                                 *****************
                                 * O   R   C   A *
                                 *****************

                                            #,                                       
                                            ###                                      
                                            ####                                     
                                            #####                                    
                                            ######                                   
                                           ########,                                 
                                     ,,################,,,,,                         
                               ,,#################################,,                 
                          ,,##########################################,,             
                       ,#########################################, ''#####,          
                    ,#############################################,,   '####,        
                  ,##################################################,,,,####,       
                ,###########''''           ''''###############################       
              ,#####''   ,,,,##########,,,,          '''####'''          '####       
            ,##' ,,,,###########################,,,                        '##       
           ' ,,###''''                  '''############,,,                           
         ,,##''                                '''############,,,,        ,,,,,,###''
      ,#''                                            '''#######################'''  
     '                                                          ''''####''''         
             ,#######,   #######,   ,#######,      ##                                
            ,#'     '#,  ##    ##  ,#'     '#,    #''#        ######   ,####,        
            ##       ##  ##   ,#'  ##            #'  '#       #        #'  '#        
            ##       ##  #######   ##           ,######,      #####,   #    #        
            '#,     ,#'  ##    ##  '#,     ,#' ,#      #,         ##   #,  ,#        
             '#######'   ##     ##  '#######'  #'      '#     #####' # '####'        



                  #######################################################
                  #                        -***-                        #
                  #          Department of theory and spectroscopy      #
                  #    Directorship and core code : Frank Neese         #
                  #        Max Planck Institute fuer Kohlenforschung    #
                  #                Kaiser Wilhelm Platz 1               #
                  #                 D-45470 Muelheim/Ruhr               #
                  #                      Germany                        #
                  #                                                     #
                  #                  All rights reserved                #
                  #                        -***-                        #
                  #######################################################


                         Program Version 5.0.4 -  RELEASE  -


 With contributions from (in alphabetic order):
   Daniel Aravena         : Magnetic Suceptibility
   Michael Atanasov       : Ab Initio Ligand Field Theory (pilot matlab implementation)
   Alexander A. Auer      : GIAO ZORA, VPT2 properties, NMR spectrum
   Ute Becker             : Parallelization
   Giovanni Bistoni       : ED, misc. LED, open-shell LED, HFLD
   Martin Brehm           : Molecular dynamics
   Dmytro Bykov           : SCF Hessian
   Vijay G. Chilkuri      : MRCI spin determinant printing, contributions to CSF-ICE
   Dipayan Datta          : RHF DLPNO-CCSD density
   Achintya Kumar Dutta   : EOM-CC, STEOM-CC
   Dmitry Ganyushin       : Spin-Orbit,Spin-Spin,Magnetic field MRCI
   Miquel Garcia          : C-PCM and meta-GGA Hessian, CC/C-PCM, Gaussian charge scheme
   Yang Guo               : DLPNO-NEVPT2, F12-NEVPT2, CIM, IAO-localization
   Andreas Hansen         : Spin unrestricted coupled pair/coupled cluster methods
   Benjamin Helmich-Paris : MC-RPA, TRAH-SCF, COSX integrals
   Lee Huntington         : MR-EOM, pCC
   Robert Izsak           : Overlap fitted RIJCOSX, COSX-SCS-MP3, EOM
   Marcus Kettner         : VPT2
   Christian Kollmar      : KDIIS, OOCD, Brueckner-CCSD(T), CCSD density, CASPT2, CASPT2-K
   Simone Kossmann        : Meta GGA functionals, TD-DFT gradient, OOMP2, MP2 Hessian
   Martin Krupicka        : Initial AUTO-CI
   Lucas Lang             : DCDCAS
   Marvin Lechner         : AUTO-CI (C++ implementation), FIC-MRCC
   Dagmar Lenk            : GEPOL surface, SMD
   Dimitrios Liakos       : Extrapolation schemes; Compound Job, initial MDCI parallelization
   Dimitrios Manganas     : Further ROCIS development; embedding schemes
   Dimitrios Pantazis     : SARC Basis sets
   Anastasios Papadopoulos: AUTO-CI, single reference methods and gradients
   Taras Petrenko         : DFT Hessian,TD-DFT gradient, ASA, ECA, R-Raman, ABS, FL, XAS/XES, NRVS
   Peter Pinski           : DLPNO-MP2, DLPNO-MP2 Gradient
   Christoph Reimann      : Effective Core Potentials
   Marius Retegan         : Local ZFS, SOC
   Christoph Riplinger    : Optimizer, TS searches, QM/MM, DLPNO-CCSD(T), (RO)-DLPNO pert. Triples
   Tobias Risthaus        : Range-separated hybrids, TD-DFT gradient, RPA, STAB
   Michael Roemelt        : Original ROCIS implementation
   Masaaki Saitow         : Open-shell DLPNO-CCSD energy and density
   Barbara Sandhoefer     : DKH picture change effects
   Avijit Sen             : IP-ROCIS
   Kantharuban Sivalingam : CASSCF convergence, NEVPT2, FIC-MRCI
   Bernardo de Souza      : ESD, SOC TD-DFT
   Georgi Stoychev        : AutoAux, RI-MP2 NMR, DLPNO-MP2 response
   Willem Van den Heuvel  : Paramagnetic NMR
   Boris Wezisla          : Elementary symmetry handling
   Frank Wennmohs         : Technical directorship


 We gratefully acknowledge several colleagues who have allowed us to
 interface, adapt or use parts of their codes:
   Stefan Grimme, W. Hujo, H. Kruse, P. Pracht,  : VdW corrections, initial TS optimization,
                  C. Bannwarth, S. Ehlert          DFT functionals, gCP, sTDA/sTD-DF
   Ed Valeev, F. Pavosevic, A. Kumar             : LibInt (2-el integral package), F12 methods
   Garnet Chan, S. Sharma, J. Yang, R. Olivares  : DMRG
   Ulf Ekstrom                                   : XCFun DFT Library
   Mihaly Kallay                                 : mrcc  (arbitrary order and MRCC methods)
   Jiri Pittner, Ondrej Demel                    : Mk-CCSD
   Frank Weinhold                                : gennbo (NPA and NBO analysis)
   Christopher J. Cramer and Donald G. Truhlar   : smd solvation model
   Lars Goerigk                                  : TD-DFT with DH, B97 family of functionals
   V. Asgeirsson, H. Jonsson                     : NEB implementation
   FAccTs GmbH                                   : IRC, NEB, NEB-TS, DLPNO-Multilevel, CI-OPT
                                                   MM, QMMM, 2- and 3-layer-ONIOM, Crystal-QMMM,
                                                   LR-CPCM, SF, NACMEs, symmetry and pop. for TD-DFT,
                                                   nearIR, NL-DFT gradient (VV10), updates on ESD,
                                                   ML-optimized integration grids
   S Lehtola, MJT Oliveira, MAL Marques          : LibXC Library
   Liviu Ungur et al                             : ANISO software


 Your calculation uses the libint2 library for the computation of 2-el integrals
 For citations please refer to: http://libint.valeyev.net

 Your ORCA version has been built with support for libXC version: 5.1.0
 For citations please refer to: https://tddft.org/programs/libxc/

 This ORCA versions uses:
   CBLAS   interface :  Fast vector & matrix operations
   LAPACKE interface :  Fast linear algebra routines
   SCALAPACK package :  Parallel linear algebra routines
   Shared memory     :  Shared parallel matrices
   BLAS/LAPACK       :  OpenBLAS 0.3.15  USE64BITINT DYNAMIC_ARCH NO_AFFINITY Prescott SINGLE_THREADED
        Core in use  :  Prescott
   Copyright (c) 2011-2014, The OpenBLAS Project


================================================================================

----- Orbital basis set information -----
Your calculation utilizes the basis: TZVP 

The basis set includes element-specific modifications.

Your calculation utilizes the basis: CP(PPP) 

----- AuxJ basis set information -----
Your calculation utilizes the auxiliary basis: def2/J
   F. Weigend, Phys. Chem. Chem. Phys. 8, 1057 (2006).

================================================================================
                                        WARNINGS
                       Please study these warnings very carefully!
================================================================================


WARNING: your system is open-shell and RHF/RKS was chosen
  ===> : WILL SWITCH to UHF/UKS


INFO   : the flag for use of the SHARK integral package has been found!

================================================================================
                                       INPUT FILE
================================================================================
NAME = input_18.inp
|  1> ! nofrozencore ReducedPop printbasis
|  2> ! B3LYP TZVP
|  3> 
|  4> %basis
|  5> newgto V "CP(PPP)" end
|  6> end
|  7> 
|  8> %pal
|  9> nprocs 4
| 10> end
| 11> 
| 12> % sym SymThresh 1e-2 end
| 13> * xyz -2 2 
| 14> V -0.3055797105797802 -0.05121114817308512 0.43270255306130584
| 15> S -0.3950697784636929 -2.2245643811763953 -1.1250307461873796
| 16> S 2.292532216658009 -0.7248843708081467 -0.11221934318643563
| 17> S -1.9841875128390731 0.8589590403599643 -0.7886830444851611
| 18> S 0.41439523073852164 2.084458163129284 0.9976735713878864
| 19> O -0.5457567936775782 -0.9161736605953347 1.7936162197939989
| 20> C 3.1198516932470928 0.6075820703461297 1.0124573580873224
| 21> C 1.5845170502930586 2.251658348728086 2.402510387956667
| 22> C 2.587048437054985 1.097217528277728 2.4097917587145314
| 23> H 1.040416847121084 2.2965292041238796 3.3545527683543392
| 24> H 2.087888123655151 3.2214412407826436 2.2717247871376403
| 25> H 2.127285911174816 0.2427366766919206 2.9385055483280436
| 26> H 3.476797348808885 1.4068563463617478 3.0062150323066024
| 27> H 3.2406570752261215 1.4980376888069857 0.38494657020125295
| 28> H 4.131703291159531 0.22139239507713243 1.2124874415714646
| 29> C -0.9036080988942987 -1.3450047866259507 -2.6765537912298556
| 30> C -3.0442952976033655 -0.4260757289211107 -1.5819910584991883
| 31> C -2.3947809957804296 -0.9931535801436971 -2.8379830808807953
| 32> H -3.9998868244255568 0.059626710298471684 -1.8312284382394293
| 33> H -3.235320957487685 -1.2265316401490425 -0.8628638574881142
| 34> H -2.476125872016814 -0.24892508114269327 -3.6486859147020425
| 35> H -2.9586254292772183 -1.8849152029118452 -3.1622686729205967
| 36> H -0.5979180786300942 -1.9448461661315577 -3.5464709741229634
| 37> H -0.32978858160692526 -0.41699910019905806 -2.7174965297366747
| 38> * 
| 39> 
| 40> % eprnmr
| 41> gtensor true
| 42> Nuclei = all H {aiso,adip,aorb,fgrad,rho}
| 43> Nuclei = all V {aiso,adip,aorb,fgrad,rho}
| 44> end
| 45> 
| 46>                          ****END OF INPUT****
================================================================================

------------------------------------------------------------------------------
                            SYMMETRY HANDLING SETUP
------------------------------------------------------------------------------

------------------
SYMMETRY DETECTION
------------------
The point group will now be determined using a tolerance of 1.0000e-02.
Splitting atom subsets according to nuclear charge, mass and basis set.
Splitting atom subsets according to distance from the molecule's center.
Identifying relative distance patterns of the atoms.
Splitting atom subsets according to atoms' relative distance patterns.
Bring atoms of each subset into input order.
The molecule is neither linear nor planar.
There is at least one atom subset not centered around the molecule's center.
The molecule does not have a center of inversion.
Analyzing the first atom subset for its symmetry.
The subset consists of a single off-center atom.
No testing is needed for point group C1.
This point group has been found:    C1
Largest non-degenerate subgroup:    C1


Mass-centered symmetry-perfected Cartesians (point group C1):

Atom          Symmetry-perfected Cartesians (x, y, z; au)
  0      -0.578339248675   -0.097519657328    0.818532674977
  1      -0.747450968681   -4.204562059977   -2.125156650293
  2       4.331380759079   -1.370577551864   -0.211220473308
  3      -3.750448281208    1.622452734259   -1.489551608302
  4       0.782216213703    3.938310453654    1.886173173217
  5      -1.032208159373   -1.732061921914    3.390286797012
  6       5.894787995092    1.147419104558    1.914110481301
  7       2.993425995987    4.254273013976    4.540930019381
  8       4.887935757627    2.072696025506    4.554689815993
  9       1.965225622581    4.339066642069    6.340029386220
 10       3.944659468379    6.086897089321    4.293781051573
 11       4.019110497074    0.457961229329    5.553814081591
 12       6.569317528796    2.657828592116    5.681766462979
 13       6.123077082536    2.830136357860    0.728286946115
 14       7.806910403317    0.417626382551    2.292112557631
 15      -1.708449122899   -2.542435307813   -5.057110295891
 16      -5.753761666850   -0.805911052249   -2.988686494633
 17      -4.526357516340   -1.877532887672   -5.362167443324
 18      -7.559567948440    0.111933540454   -3.459676884678
 19      -6.114747848583   -2.318553506748   -1.629733029269
 20      -4.680077054825   -0.471144843501   -6.894173775240
 21      -5.591869077785   -3.562718131445   -5.974978401456
 22      -1.130778702727   -3.675971238873   -6.701015530751
 23      -0.624087384927   -0.788758709745   -5.134480858841


------------------
SYMMETRY REDUCTION
------------------
ORCA supports only abelian point groups.
It is now checked, if the determined point group is supported:
Point Group ( C1    ) is          ... supported

The point group is C1 - hence turning off symmetry
If this is a round-off problem, please increase the symmetry
        detection tolerance (%method SymThresh)

Storing the symmetry object:
Symmetry file                     ... input_18.sym.tmp
Writing symmetry information      ... done

                       ****************************
                       * Single Point Calculation *
                       ****************************

---------------------------------
CARTESIAN COORDINATES (ANGSTROEM)
---------------------------------
  V     -0.306044   -0.051605    0.433149
  S     -0.395534   -2.224958   -1.124584
  S      2.292068   -0.725278   -0.111773
  S     -1.984652    0.858565   -0.788237
  S      0.413931    2.084064    0.998120
  O     -0.546221   -0.916568    1.794063
  C      3.119387    0.607188    1.012904
  C      1.584053    2.251264    2.402957
  C      2.586584    1.096823    2.410238
  H      1.039953    2.296135    3.354999
  H      2.087424    3.221047    2.272171
  H      2.126822    0.242343    2.938952
  H      3.476333    1.406462    3.006661
  H      3.240193    1.497644    0.385393
  H      4.131239    0.220998    1.212934
  C     -0.904072   -1.345399   -2.676108
  C     -3.044760   -0.426470   -1.581545
  C     -2.395245   -0.993548   -2.837537
  H     -4.000351    0.059233   -1.830782
  H     -3.235785   -1.226926   -0.862418
  H     -2.476590   -0.249319   -3.648240
  H     -2.959090   -1.885309   -3.161822
  H     -0.598382   -1.945240   -3.546025
  H     -0.330253   -0.417393   -2.717050

----------------------------
CARTESIAN COORDINATES (A.U.)
----------------------------
  NO LB      ZA    FRAG     MASS         X           Y           Z
   0 V    23.0000    0    50.940   -0.578339   -0.097520    0.818533
   1 S    16.0000    0    32.060   -0.747451   -4.204562   -2.125157
   2 S    16.0000    0    32.060    4.331381   -1.370578   -0.211220
   3 S    16.0000    0    32.060   -3.750448    1.622453   -1.489552
   4 S    16.0000    0    32.060    0.782216    3.938310    1.886173
   5 O     8.0000    0    15.999   -1.032208   -1.732062    3.390287
   6 C     6.0000    0    12.011    5.894788    1.147419    1.914110
   7 C     6.0000    0    12.011    2.993426    4.254273    4.540930
   8 C     6.0000    0    12.011    4.887936    2.072696    4.554690
   9 H     1.0000    0     1.008    1.965226    4.339067    6.340029
  10 H     1.0000    0     1.008    3.944659    6.086897    4.293781
  11 H     1.0000    0     1.008    4.019110    0.457961    5.553814
  12 H     1.0000    0     1.008    6.569318    2.657829    5.681766
  13 H     1.0000    0     1.008    6.123077    2.830136    0.728287
  14 H     1.0000    0     1.008    7.806910    0.417626    2.292113
  15 C     6.0000    0    12.011   -1.708449   -2.542435   -5.057110
  16 C     6.0000    0    12.011   -5.753762   -0.805911   -2.988686
  17 C     6.0000    0    12.011   -4.526358   -1.877533   -5.362167
  18 H     1.0000    0     1.008   -7.559568    0.111934   -3.459677
  19 H     1.0000    0     1.008   -6.114748   -2.318554   -1.629733
  20 H     1.0000    0     1.008   -4.680077   -0.471145   -6.894174
  21 H     1.0000    0     1.008   -5.591869   -3.562718   -5.974978
  22 H     1.0000    0     1.008   -1.130779   -3.675971   -6.701016
  23 H     1.0000    0     1.008   -0.624087   -0.788759   -5.134481

--------------------------------
INTERNAL COORDINATES (ANGSTROEM)
--------------------------------
 V      0   0   0     0.000000000000     0.00000000     0.00000000
 S      1   0   0     2.675444968457     0.00000000     0.00000000
 S      1   2   0     2.738788248544    73.50528712     0.00000000
 S      1   2   3     2.266697311904    89.29431812   136.68265849
 S      1   2   3     2.323497272414   153.97509771    49.25014617
 O      1   2   3     1.630316284480    92.87238813   260.31476342
 C      3   1   2     1.929979796665    96.94302854   184.56936190
 C      5   1   2     1.835948652836   117.85638528   251.83523655
 C      8   5   1     1.529004842283   110.65690793    37.70762295
 H      8   5   1     1.097471238270   110.58107690   274.80738242
 H      8   5   1     1.100439079914   106.31111124   158.89926388
 H      9   8   5     1.105014650246   108.25921063   275.16616849
 H      9   8   5     1.115011230847   108.42648229   159.52666443
 H      7   3   1     1.096026887297   105.93356005   270.87347773
 H      7   3   1     1.101361954936   104.92638372   158.19002164
 C      2   1   3     1.854578136130    96.37310775   255.29794404
 C      4   1   2     1.845123431827   112.17902922    26.22219726
 C     17   4   1     1.523470405983   111.63844225   280.72346053
 H     17   4   1     1.100536822218   106.79092062   160.02726722
 H     17   4   1     1.092869800016   109.12417287    42.70759939
 H     18  17   4     1.103509008745   108.85706771   285.20215041
 H     18  17   4     1.103775557907   108.97506174   168.90446468
 H     16   2   1     1.100005442782   109.07342038   155.96908601
 H     16   2   1     1.091851501028   106.87932613    40.93782401

---------------------------
INTERNAL COORDINATES (A.U.)
---------------------------
 V      0   0   0     0.000000000000     0.00000000     0.00000000
 S      1   0   0     5.055858276762     0.00000000     0.00000000
 S      1   2   0     5.175559728549    73.50528712     0.00000000
 S      1   2   3     4.283437147995    89.29431812   136.68265849
 S      1   2   3     4.390773517775   153.97509771    49.25014617
 O      1   2   3     3.080851289339    92.87238813   260.31476342
 C      3   1   2     3.647133259697    96.94302854   184.56936190
 C      5   1   2     3.469440149801   117.85638528   251.83523655
 C      8   5   1     2.889400409354   110.65690793    37.70762295
 H      8   5   1     2.073920080185   110.58107690   274.80738242
 H      8   5   1     2.079528488101   106.31111124   158.89926388
 H      9   8   5     2.088175062935   108.25921063   275.16616849
 H      9   8   5     2.107065862546   108.42648229   159.52666443
 H      7   3   1     2.071190652405   105.93356005   270.87347773
 H      7   3   1     2.081272469150   104.92638372   158.19002164
 C      2   1   3     3.504644771243    96.37310775   255.29794404
 C      4   1   2     3.486777969434   112.17902922    26.22219726
 C     17   4   1     2.878941840442   111.63844225   280.72346053
 H     17   4   1     2.079713194288   106.79092062   160.02726722
 H     17   4   1     2.065224622064   109.12417287    42.70759939
 H     18  17   4     2.085329812843   108.85706771   285.20215041
 H     18  17   4     2.085833517760   108.97506174   168.90446468
 H     16   2   1     2.078709032680   109.07342038   155.96908601
 H     16   2   1     2.063300315854   106.87932613    40.93782401

---------------------
BASIS SET INFORMATION
---------------------
There are 5 groups of distinct atoms

 Group   1 Type V   : 17s11p5d1f contracted to 17s7p3d1f pattern {11111111111111111/3311111/311/1}
 Group   2 Type S   : 14s9p1d contracted to 5s4p1d pattern {73211/6111/1}
 Group   3 Type O   : 11s6p1d contracted to 5s3p1d pattern {62111/411/1}
 Group   4 Type C   : 11s6p1d contracted to 5s3p1d pattern {62111/411/1}
 Group   5 Type H   : 5s1p contracted to 3s1p pattern {311/1}

Atom   0V    basis set group =>   1
Atom   1S    basis set group =>   2
Atom   2S    basis set group =>   2
Atom   3S    basis set group =>   2
Atom   4S    basis set group =>   2
Atom   5O    basis set group =>   3
Atom   6C    basis set group =>   4
Atom   7C    basis set group =>   4
Atom   8C    basis set group =>   4
Atom   9H    basis set group =>   5
Atom  10H    basis set group =>   5
Atom  11H    basis set group =>   5
Atom  12H    basis set group =>   5
Atom  13H    basis set group =>   5
Atom  14H    basis set group =>   5
Atom  15C    basis set group =>   4
Atom  16C    basis set group =>   4
Atom  17C    basis set group =>   4
Atom  18H    basis set group =>   5
Atom  19H    basis set group =>   5
Atom  20H    basis set group =>   5
Atom  21H    basis set group =>   5
Atom  22H    basis set group =>   5
Atom  23H    basis set group =>   5

-------------------------
BASIS SET IN INPUT FORMAT
-------------------------

 # Basis set for element : H 
 NewGTO H 
 S 3 
   1      34.0613410000      0.0254393168
   2       5.1235746000      0.1900859340
   3       1.1646626000      0.8524411390
 S 1 
   1       0.3272304100      1.0000000000
 S 1 
   1       0.1030724100      1.0000000000
 P 1 
   1       0.8000000000      1.0000000000
  end;

 # Basis set for element : C 
 NewGTO C 
 S 6 
   1   13575.3496820000      0.0006064601
   2    2035.2333680000      0.0046978985
   3     463.2256235900      0.0243324735
   4     131.2001959800      0.0973999560
   5      42.8530158900      0.3019558443
   6      15.5841857700      0.6623361013
 S 2 
   1       6.2067138500      0.6559530795
   2       2.5764896500      0.3758563390
 S 1 
   1       0.5769633900      1.0000000000
 S 1 
   1       0.2297283100      1.0000000000
 S 1 
   1       0.0951644400      1.0000000000
 P 4 
   1      34.6972322400      0.0113272290
   2       7.9582622800      0.0761696612
   3       2.3780826900      0.3019225154
   4       0.8143320800      0.7278502776
 P 1 
   1       0.2888754700      1.0000000000
 P 1 
   1       0.1005682400      1.0000000000
 D 1 
   1       0.8000000000      1.0000000000
  end;

 # Basis set for element : O 
 NewGTO O 
 S 6 
   1   27032.3826310000      0.0005722654
   2    4052.3871392000      0.0044353333
   3     922.3272271000      0.0230201034
   4     261.2407098900      0.0928224938
   5      85.3546413500      0.2937849971
   6      31.0350352400      0.6740160462
 S 2 
   1      12.2608607300      0.6383993750
   2       4.9987076000      0.3953458663
 S 1 
   1       1.1703108200      1.0000000000
 S 1 
   1       0.4647474100      1.0000000000
 S 1 
   1       0.1850453600      1.0000000000
 P 4 
   1      63.2749548000      0.0120183316
   2      14.6270493800      0.0830054304
   3       4.4501223500      0.3199174388
   4       1.5275799600      0.7071554258
 P 1 
   1       0.5293511800      1.0000000000
 P 1 
   1       0.1747842100      1.0000000000
 D 1 
   1       1.2000000000      1.0000000000
  end;

 # Basis set for element : S 
 NewGTO S 
 S 7 
   1   60700.9281040000      0.0005238013
   2    9102.6106854000      0.0040506304
   3    2071.4166009000      0.0208270003
   4     586.0247682100      0.0814968475
   5     190.5539502100      0.2374911358
   6      67.6303842600      0.4472617145
   7      25.1273069100      0.3489191913
 S 3 
   1     112.5746301000      0.1004556993
   2      34.7955542200      0.4339117282
   3       6.5115556200     -1.2084330582
 S 2 
   1       3.2399032300      0.6749812922
   2       1.5477160900      0.3470879597
 S 1 
   1       0.4054103000      1.0000000000
 S 1 
   1       0.1455065100      1.0000000000
 P 6 
   1     564.3671602700      0.0025564845
   2     133.4262437900      0.0202874255
   3      42.4682711900      0.0927670112
   4      15.6165275800      0.2650208365
   5       6.1093988500      0.4486298663
   6       2.4404160200      0.3596369916
 P 1 
   1       0.8388220100      1.0000000000
 P 1 
   1       0.3128874700      1.0000000000
 P 1 
   1       0.1077010900      1.0000000000
 D 1 
   1       0.5500000000      1.0000000000
  end;

 # Basis set for element : V 
 NewGTO V 
 S 1 
   1  4239814.9912500000      1.0000000000
 S 1 
   1  1695925.9965000001      1.0000000000
 S 1 
   1  678370.3986000001      1.0000000000
 S 1 
   1  271348.1594400000      1.0000000000
 S 1 
   1   40672.0050780000      1.0000000000
 S 1 
   1    9257.0761385000      1.0000000000
 S 1 
   1    2622.7328773000      1.0000000000
 S 1 
   1     858.5948018500      1.0000000000
 S 1 
   1     314.1941865000      1.0000000000
 S 1 
   1     124.4786212700      1.0000000000
 S 1 
   1      50.4693993090      1.0000000000
 S 1 
   1      12.5138469110      1.0000000000
 S 1 
   1       5.3447758082      1.0000000000
 S 1 
   1       1.5755631295      1.0000000000
 S 1 
   1       0.6306903307      1.0000000000
 S 1 
   1       0.0879544416      1.0000000000
 S 1 
   1       0.0342969197      1.0000000000
 P 3 
   1    1450.0319327000     -0.0222847647
   2     343.7504988400     -0.1817959329
   3     110.8252170800     -0.8607412073
 P 3 
   1      41.8224645460     -0.2522537814
   2      17.0880737100     -0.4620379520
   3       7.2613218939     -0.3990010670
 P 1 
   1       2.9458145262      1.0000000000
 P 1 
   1       1.1650209680      1.0000000000
 P 1 
   1       0.4339937839      1.0000000000
 D 3 
   1      27.3603358640      0.0575501019
   2       7.4542765527      0.3023798347
   3       2.4632270217      0.7724212088
 D 1 
   1       0.8249954244      1.0000000000
 D 1 
   1       0.2526297057      1.0000000000
 P 1 
   1       0.1112480000      1.0000000000
 P 1 
   1       0.0363780000      1.0000000000
 F 1 
   1       1.8000000000      1.0000000000
  end;

---------------------------------
AUXILIARY/J BASIS SET INFORMATION
---------------------------------
There are 5 groups of distinct atoms

 Group   1 Type V   : 19s5p5d3f3g contracted to 8s5p5d2f3g pattern {121111111/11111/11111/21/111}
 Group   2 Type S   : 14s5p5d2f1g contracted to 8s4p3d1f1g pattern {71111111/2111/311/2/1}
 Group   3 Type O   : 12s5p4d2f1g contracted to 6s4p3d1f1g pattern {711111/2111/211/2/1}
 Group   4 Type C   : 12s5p4d2f1g contracted to 6s4p3d1f1g pattern {711111/2111/211/2/1}
 Group   5 Type H   : 5s2p1d contracted to 3s1p1d pattern {311/2/1}

Atom   0V    basis set group =>   1
Atom   1S    basis set group =>   2
Atom   2S    basis set group =>   2
Atom   3S    basis set group =>   2
Atom   4S    basis set group =>   2
Atom   5O    basis set group =>   3
Atom   6C    basis set group =>   4
Atom   7C    basis set group =>   4
Atom   8C    basis set group =>   4
Atom   9H    basis set group =>   5
Atom  10H    basis set group =>   5
Atom  11H    basis set group =>   5
Atom  12H    basis set group =>   5
Atom  13H    basis set group =>   5
Atom  14H    basis set group =>   5
Atom  15C    basis set group =>   4
Atom  16C    basis set group =>   4
Atom  17C    basis set group =>   4
Atom  18H    basis set group =>   5
Atom  19H    basis set group =>   5
Atom  20H    basis set group =>   5
Atom  21H    basis set group =>   5
Atom  22H    basis set group =>   5
Atom  23H    basis set group =>   5

-------------------------------------
AUXILIARY/J BASIS SET IN INPUT FORMAT
-------------------------------------

 # Auxiliary/J basis set for element : H 
 NewAuxJGTO H 
 S 3 
   1      15.6752927000      0.1007184237
   2       3.6063578000      0.3404257499
   3       1.2080016000      0.6491996172
 S 1 
   1       0.4726794000      1.0000000000
 S 1 
   1       0.2018100000      1.0000000000
 P 2 
   1       2.0281365000      0.5596620919
   2       0.5358730000      0.5596620919
 D 1 
   1       2.2165124000      1.0000000000
  end;

 # Auxiliary/J basis set for element : C 
 NewAuxJGTO C 
 S 7 
   1    1861.0916331000      0.0134602335
   2     642.9939764000      0.0299160374
   3     235.1105725000      0.1008649584
   4      90.7028894000      0.2370970548
   5      36.7794552000      0.3924037254
   6      15.6046273000      0.3195862154
   7       6.8907294000      0.0530104441
 S 1 
   1       3.1478850000     -1.0000000000
 S 1 
   1       1.4777287000      1.0000000000
 S 1 
   1       0.7076466000      1.0000000000
 S 1 
   1       0.3430122000      1.0000000000
 S 1 
   1       0.1669453000      1.0000000000
 P 2 
   1      13.5472892000     -0.6769313712
   2       5.4669419000     -0.3779500978
 P 1 
   1       2.1751721000      1.0000000000
 P 1 
   1       0.8582194000      1.0000000000
 P 1 
   1       0.3376720000      1.0000000000
 D 2 
   1       5.9287253000     -0.3533329857
   2       1.9809209000     -0.7456525731
 D 1 
   1       0.8055417000     -1.0000000000
 D 1 
   1       0.3531244000     -1.0000000000
 F 2 
   1       1.6755626000      0.6311076882
   2       0.5997536000      0.4968166032
 G 1 
   1       1.0024600000     -1.0000000000
  end;

 # Auxiliary/J basis set for element : O 
 NewAuxJGTO O 
 S 7 
   1    2876.8216605000      0.0168151159
   2    1004.7443032000      0.0340137548
   3     369.7579954000      0.1194951309
   4     142.9442404000      0.2664627624
   5      57.8366425000      0.4202764046
   6      24.3864983000      0.2765077335
   7      10.6622662000      0.0057008815
 S 1 
   1       4.8070437000     -1.0000000000
 S 1 
   1       2.2210770000      1.0000000000
 S 1 
   1       1.0447795000      1.0000000000
 S 1 
   1       0.4968425000      1.0000000000
 S 1 
   1       0.2371384000      1.0000000000
 P 2 
   1      64.2613382000     -0.2731534179
   2      16.3006076000     -0.8168011598
 P 1 
   1       4.3550542000      1.0000000000
 P 1 
   1       1.2019554000      1.0000000000
 P 1 
   1       0.3354196000      1.0000000000
 D 2 
   1       9.2146611000     -0.4661230638
   2       2.8435251000     -0.6600908911
 D 1 
   1       0.9955759000     -1.0000000000
 D 1 
   1       0.3649441000     -1.0000000000
 F 2 
   1       2.6420115000      0.5931563945
   2       0.7345613000      0.5931563945
 G 1 
   1       1.3931000000     -1.0000000000
  end;

 # Auxiliary/J basis set for element : S 
 NewAuxJGTO S 
 S 7 
   1    7399.0303145000      0.0295137551
   2    2710.1675859000      0.0559686311
   3    1034.3279062000      0.1764696370
   4     410.4645411000      0.3577969368
   5     168.9762502000      0.4299293578
   6      71.9687889000      0.1259148089
   7      31.6172683000     -0.0646025788
 S 1 
   1      14.2796836000      1.0000000000
 S 1 
   1       6.6060948000      1.0000000000
 S 1 
   1       3.1181477000      1.0000000000
 S 1 
   1       1.4954039000     -1.0000000000
 S 1 
   1       0.7254779000      1.0000000000
 S 1 
   1       0.3544216000      1.0000000000
 S 1 
   1       0.1735525000      1.0000000000
 P 2 
   1      12.6998799000      1.4059102813
   2       4.4295784000     -1.2124994202
 P 1 
   1       1.5232889000      1.0000000000
 P 1 
   1       0.5194667000     -1.0000000000
 P 1 
   1       0.1766547000     -1.0000000000
 D 3 
   1      16.8546461000      1.0295742104
   2       5.0810461000     -0.7461553923
   3       1.5102323000      0.8357028005
 D 1 
   1       0.4451331000      1.0000000000
 D 1 
   1       0.1308362000      1.0000000000
 F 2 
   1       1.0809860000      0.5572698934
   2       0.4161474000      0.5572698934
 G 1 
   1       0.6707100000     -1.0000000000
  end;

 # Auxiliary/J basis set for element : V 
 NewAuxJGTO V 
 S 12 
   1   11942.0842430000      0.0459866720
   2    2430.7110193000      0.1744615821
   3     841.0764301000      0.2900402792
   4     494.7508273000      0.1411212903
   5     291.0298903000      0.2660697186
   6     171.1940483000      0.0446365706
   7      59.2366916000     -0.0408204801
   8      34.8451117000      0.1394665381
   9      20.4971240000      0.2164746715
  10      12.0571314000      0.0864266611
  11       7.0924300000     -0.0568501658
  12       4.1720176000     -0.0126212852
 S 1 
   1       2.4541279000      1.0000000000
 S 1 
   1       1.4436046000      1.0000000000
 S 1 
   1       0.8491792000      1.0000000000
 S 1 
   1       0.2938336000      1.0000000000
 S 1 
   1       0.1728433000      1.0000000000
 S 1 
   1       0.1016725000      1.0000000000
 S 1 
   1       0.0598074000      1.0000000000
 P 1 
   1      16.7130979000     -1.0000000000
 P 1 
   1       4.7454037000     -1.0000000000
 P 1 
   1       1.3889998000      1.0000000000
 P 1 
   1       0.4142440000     -1.0000000000
 P 1 
   1       0.1243234000      1.0000000000
 D 1 
   1       7.7143225000      1.0000000000
 D 1 
   1       3.1170731000      1.0000000000
 D 1 
   1       1.2767950000     -1.0000000000
 D 1 
   1       0.5273386000      1.0000000000
 D 1 
   1       0.2184050000      1.0000000000
 F 2 
   1       3.1309344000     -1.0825667766
   2       1.0419780000      0.1809223232
 F 1 
   1       0.3559044000      1.0000000000
 G 1 
   1       8.7130110000      1.0000000000
 G 1 
   1       2.7493872000      1.0000000000
 G 1 
   1       0.8775089000      1.0000000000
  end;



           ************************************************************
           *        Program running with 4 parallel MPI-processes     *
           *              working on a common directory               *
           ************************************************************
------------------------------------------------------------------------------
                           ORCA GTO INTEGRAL CALCULATION
                           -- RI-GTO INTEGRALS CHOSEN --
------------------------------------------------------------------------------
------------------------------------------------------------------------------
                   ___                                                        
                  /   \      - P O W E R E D   B Y -                         
                 /     \                                                     
                 |  |  |   _    _      __       _____    __    __             
                 |  |  |  | |  | |    /  \     |  _  \  |  |  /  |          
                  \  \/   | |  | |   /    \    | | | |  |  | /  /          
                 / \  \   | |__| |  /  /\  \   | |_| |  |  |/  /          
                |  |  |   |  __  | /  /__\  \  |    /   |      \           
                |  |  |   | |  | | |   __   |  |    \   |  |\   \          
                \     /   | |  | | |  |  |  |  | |\  \  |  | \   \       
                 \___/    |_|  |_| |__|  |__|  |_| \__\ |__|  \__/        
                                                                              
                      - O R C A' S   B I G   F R I E N D -                    
                                      &                                       
                       - I N T E G R A L  F E E D E R -                       
                                                                              
 v1 FN, 2020, v2 2021                                                         
------------------------------------------------------------------------------


Reading SHARK input file input_18.SHARKINP.tmp ... ok
----------------------
SHARK INTEGRAL PACKAGE
----------------------

Number of atoms                             ...     24
Number of basis functions                   ...    353
Number of shells                            ...    179
Maximum angular momentum                    ...      3
Integral batch strategy                     ... SHARK/LIBINT Hybrid
RI-J (if used) integral strategy            ... SPLIT-RIJ (Revised 2003 algorithm where possible)
Printlevel                                  ...      1
Contraction scheme used                     ... SEGMENTED contraction
Coulomb Range Separation                    ... NOT USED
Exchange Range Separation                   ... NOT USED
Finite Nucleus Model                        ... NOT USED
Auxiliary Coulomb fitting basis             ... AVAILABLE
   # of basis functions in Aux-J            ...    768
   # of shells in Aux-J                     ...    256
   Maximum angular momentum in Aux-J        ...      4
Auxiliary J/K fitting basis                 ... NOT available
Auxiliary Correlation fitting basis         ... NOT available
Auxiliary 'external' fitting basis          ... NOT available
Integral threshold                          ...     1.000000e-10
Primitive cut-off                           ...     1.000000e-11
Primitive pair pre-selection threshold      ...     1.000000e-11

Calculating pre-screening integrals         ... done (  0.0 sec) Dimension = 179
Organizing shell pair data                  ... done (  0.1 sec)
Shell pair information
Total number of shell pairs                 ...     16110
Shell pairs after pre-screening             ...     11544
Total number of primitive shell pairs       ...     54315
Primitive shell pairs kept                  ...     25614
          la=0 lb=0:   3955 shell pairs
          la=1 lb=0:   4417 shell pairs
          la=1 lb=1:   1267 shell pairs
          la=2 lb=0:   1073 shell pairs
          la=2 lb=1:    608 shell pairs
          la=2 lb=2:     86 shell pairs
          la=3 lb=0:     76 shell pairs
          la=3 lb=1:     47 shell pairs
          la=3 lb=2:     14 shell pairs
          la=3 lb=3:      1 shell pairs

Calculating one electron integrals          ... done (  0.0 sec)
Calculating RI/J V-Matrix + Cholesky decomp.... done (  0.0 sec)
Calculating Nuclear repulsion               ... done (  0.0 sec) ENN=   1515.681411858438 Eh

SHARK setup successfully completed in   0.4 seconds

Maximum memory used throughout the entire GTOINT-calculation: 25.5 MB


           ************************************************************
           *        Program running with 4 parallel MPI-processes     *
           *              working on a common directory               *
           ************************************************************
-------------------------------------------------------------------------------
                                 ORCA SCF
-------------------------------------------------------------------------------

------------
SCF SETTINGS
------------
Hamiltonian:
 Density Functional     Method          .... DFT(GTOs)
 Exchange Functional    Exchange        .... B88
   X-Alpha parameter    XAlpha          ....  0.666667
   Becke's b parameter  XBeta           ....  0.004200
 Correlation Functional Correlation     .... LYP
 LDA part of GGA corr.  LDAOpt          .... VWN-5
 Gradients option       PostSCFGGA      .... off
 Hybrid DFT is turned on
   Fraction HF Exchange ScalHFX         ....  0.200000
   Scaling of DF-GGA-X  ScalDFX         ....  0.720000
   Scaling of DF-GGA-C  ScalDFC         ....  0.810000
   Scaling of DF-LDA-C  ScalLDAC        ....  1.000000
   Perturbative correction              ....  0.000000
   Density functional embedding theory  .... OFF
   NL short-range parameter             ....  4.800000
 RI-approximation to the Coulomb term is turned on
   Number of AuxJ basis functions       .... 768
   RIJ-COSX (HFX calculated with COS-X)).... on


General Settings:
 Integral files         IntName         .... input_18
 Hartree-Fock type      HFTyp           .... UHF
 Total Charge           Charge          ....   -2
 Multiplicity           Mult            ....    2
 Number of Electrons    NEL             ....  145
 Basis Dimension        Dim             ....  353
 Nuclear Repulsion      ENuc            ....   1515.6814118584 Eh

Convergence Acceleration:
 DIIS                   CNVDIIS         .... on
   Start iteration      DIISMaxIt       ....    12
   Startup error        DIISStart       ....  0.200000
   # of expansion vecs  DIISMaxEq       ....     5
   Bias factor          DIISBfac        ....   1.050
   Max. coefficient     DIISMaxC        ....  10.000
 Trust-Rad. Augm. Hess. CNVTRAH         .... auto
   Auto Start mean grad. ratio tolernc. ....  1.125000
   Auto Start start iteration           ....    20
   Auto Start num. interpolation iter.  ....    10
   Max. Number of Micro iterations      ....    16
   Max. Number of Macro iterations      .... Maxiter - #DIIS iter
   Number of Davidson start vectors     ....     2
   Converg. threshold I  (grad. norm)   ....   5.000e-05
   Converg. threshold II (energy diff.) ....   1.000e-06
   Grad. Scal. Fac. for Micro threshold ....   0.100
   Minimum threshold for Micro iter.    ....   0.010
   NR start threshold (gradient norm)   ....   0.001
   Initial trust radius                 ....   0.400
   Minimum AH scaling param. (alpha)    ....   1.000
   Maximum AH scaling param. (alpha)    .... 1000.000
   Orbital update algorithm             .... Taylor
   White noise on init. David. guess    .... on
   Maximum white noise                  ....   0.010
   Quad. conv. algorithm                .... NR
 SOSCF                  CNVSOSCF        .... off
 Level Shifting         CNVShift        .... on
   Level shift para.    LevelShift      ....    0.2500
   Turn off err/grad.   ShiftErr        ....    0.0010
 Zerner damping         CNVZerner       .... off
 Static damping         CNVDamp         .... on
   Fraction old density DampFac         ....    0.7000
   Max. Damping (<1)    DampMax         ....    0.9800
   Min. Damping (>=0)   DampMin         ....    0.0000
   Turn off err/grad.   DampErr         ....    0.1000
 Fernandez-Rico         CNVRico         .... off

SCF Procedure:
 Maximum # iterations   MaxIter         ....   125
 SCF integral mode      SCFMode         .... Direct
   Integral package                     .... SHARK and LIBINT hybrid scheme
 Reset frequency        DirectResetFreq ....    20
 Integral Threshold     Thresh          ....  1.000e-10 Eh
 Primitive CutOff       TCut            ....  1.000e-11 Eh

Convergence Tolerance:
 Convergence Check Mode ConvCheckMode   .... Total+1el-Energy
 Convergence forced     ConvForced      .... 0
 Energy Change          TolE            ....  1.000e-06 Eh
 1-El. energy change                    ....  1.000e-03 Eh
 DIIS Error             TolErr          ....  1.000e-06


Diagonalization of the overlap matrix:
Smallest eigenvalue                        ... 2.954e-04
Time for diagonalization                   ...    0.054 sec
Threshold for overlap eigenvalues          ... 1.000e-08
Number of eigenvalues below threshold      ... 0
Time for construction of square roots      ...    0.051 sec
Total time needed                          ...    0.107 sec

Time for model grid setup =    0.225 sec

------------------------------
INITIAL GUESS: MODEL POTENTIAL
------------------------------
Loading Hartree-Fock densities                     ... done
Calculating cut-offs                               ... done
Initializing the effective Hamiltonian             ... done
Setting up the integral package (SHARK)            ... done
Starting the Coulomb interaction                   ... done (   0.2 sec)
Reading the grid                                   ... done
Mapping shells                                     ... done
Starting the XC term evaluation                    ... done (   0.1 sec)
  promolecular density results
     # of electrons  =    142.993148019
     EX              =   -186.834824511
     EC              =     -5.512690050
     EX+EC           =   -192.347514561
Transforming the Hamiltonian                       ... done (   0.0 sec)
Diagonalizing the Hamiltonian                      ... done (   0.0 sec)
Back transforming the eigenvectors                 ... done (   0.0 sec)
Now organizing SCF variables                       ... done
                      ------------------
                      INITIAL GUESS DONE (   0.6 sec)
                      ------------------
-------------------
DFT GRID GENERATION
-------------------

General Integration Accuracy     IntAcc      ... 4.388
Radial Grid Type                 RadialGrid  ... OptM3 with GC (2021)
Angular Grid (max. ang.)         AngularGrid ... 4 (Lebedev-302)
Angular grid pruning method      GridPruning ... 4 (adaptive)
Weight generation scheme         WeightScheme... Becke
Basis function cutoff            BFCut       ... 1.0000e-10
Integration weight cutoff        WCut        ... 1.0000e-14
Angular grids for H and He will be reduced by one unit
Partially contracted basis set               ... off
Rotationally invariant grid construction     ... off

Total number of grid points                  ...   131144
Total number of batches                      ...     2062
Average number of points per batch           ...       63
Average number of grid points per atom       ...     5464
Time for grid setup =    1.053 sec

--------------------
COSX GRID GENERATION
--------------------

GRIDX 1
-------
General Integration Accuracy     IntAcc      ... 3.816
Radial Grid Type                 RadialGrid  ... OptM3 with GC (2021)
Angular Grid (max. ang.)         AngularGrid ... 1 (Lebedev-50)
Angular grid pruning method      GridPruning ... 4 (adaptive)
Weight generation scheme         WeightScheme... Becke
Basis function cutoff            BFCut       ... 1.0000e-10
Integration weight cutoff        WCut        ... 1.0000e-14
Angular grids for H and He will be reduced by one unit
Partially contracted basis set               ... on
Rotationally invariant grid construction     ... off

Total number of grid points                  ...    16449
Total number of batches                      ...      272
Average number of points per batch           ...       60
Average number of grid points per atom       ...      685
UseSFitting                                  ... on

GRIDX 2
-------
General Integration Accuracy     IntAcc      ... 4.020
Radial Grid Type                 RadialGrid  ... OptM3 with GC (2021)
Angular Grid (max. ang.)         AngularGrid ... 2 (Lebedev-110)
Angular grid pruning method      GridPruning ... 4 (adaptive)
Weight generation scheme         WeightScheme... Becke
Basis function cutoff            BFCut       ... 1.0000e-10
Integration weight cutoff        WCut        ... 1.0000e-14
Angular grids for H and He will be reduced by one unit
Partially contracted basis set               ... on
Rotationally invariant grid construction     ... off

Total number of grid points                  ...    34440
Total number of batches                      ...      548
Average number of points per batch           ...       62
Average number of grid points per atom       ...     1435
UseSFitting                                  ... on

GRIDX 3
-------
General Integration Accuracy     IntAcc      ... 4.338
Radial Grid Type                 RadialGrid  ... OptM3 with GC (2021)
Angular Grid (max. ang.)         AngularGrid ... 3 (Lebedev-194)
Angular grid pruning method      GridPruning ... 4 (adaptive)
Weight generation scheme         WeightScheme... Becke
Basis function cutoff            BFCut       ... 1.0000e-10
Integration weight cutoff        WCut        ... 1.0000e-14
Angular grids for H and He will be reduced by one unit
Partially contracted basis set               ... on
Rotationally invariant grid construction     ... off

Total number of grid points                  ...    77563
Total number of batches                      ...     1225
Average number of points per batch           ...       63
Average number of grid points per atom       ...     3232
UseSFitting                                  ... on

Time for X-Grid setup             =    1.030 sec

--------------
SCF ITERATIONS
--------------
ITER       Energy         Delta-E        Max-DP      RMS-DP      [F,P]     Damp
               ***  Starting incremental Fock matrix formation  ***
  0  -2847.0370902665   0.000000000000 0.06951945  0.00110464  0.2389027 0.7000
  1  -2847.2505506659  -0.213460399312 0.10697040  0.00114805  0.1556551 0.7000
                               ***Turning on DIIS***
  2  -2847.4088057857  -0.158255119860 0.06842484  0.00068657  0.1088405 0.7000
  3  -2847.4844919045  -0.075686118805 0.10145280  0.00102286  0.0771285 0.0000
  4  -2847.6686187097  -0.184126805143 0.05714708  0.00054471  0.0089920 0.0000
  5  -2847.6756550362  -0.007036326499 0.02040804  0.00018791  0.0095912 0.0000
  6  -2847.6769838010  -0.001328764833 0.00999437  0.00009537  0.0037628 0.0000
  7  -2847.6774122511  -0.000428450083 0.00650566  0.00006129  0.0020127 0.0000
  8  -2847.6776475166  -0.000235265539 0.00488443  0.00004857  0.0016252 0.0000
  9  -2847.6778320056  -0.000184489012 0.00369666  0.00003864  0.0011662 0.0000
 10  -2847.6779591456  -0.000127139985 0.00229713  0.00003274  0.0010096 0.0000
 11  -2847.6780716368  -0.000112491194 0.00376696  0.00007142  0.0008777 0.0000
               *** Restarting incremental Fock matrix formation ***
                                   *** Resetting DIIS ***
 12  -2847.6781780473  -0.000106410531 0.00145354  0.00002579  0.0005808 0.0000
 13  -2847.6781540957   0.000023951599 0.00065920  0.00000864  0.0021405 0.0000
 14  -2847.6781996252  -0.000045529488 0.00109579  0.00001281  0.0007115 0.0000
 15  -2847.6782155404  -0.000015915129 0.00079412  0.00001417  0.0004613 0.0000
 16  -2847.6782285458  -0.000013005415 0.00066275  0.00001103  0.0004574 0.0000
 17  -2847.6782352034  -0.000006657610 0.00055605  0.00000846  0.0001927 0.0000
 18  -2847.6782370999  -0.000001896534 0.00022440  0.00000222  0.0000666 0.0000
 19  -2847.6782372775  -0.000000177587 0.00012187  0.00000095  0.0000213 0.0000
 20  -2847.6782372837  -0.000000006171 0.00002148  0.00000040  0.0000174 0.0000
 21  -2847.6782372847  -0.000000001009 0.00003203  0.00000045  0.0000156 0.0000
 22  -2847.6782373059  -0.000000021231 0.00002979  0.00000028  0.0000096 0.0000
                 **** Energy Check signals convergence ****

               *****************************************************
               *                     SUCCESS                       *
               *           SCF CONVERGED AFTER  23 CYCLES          *
               *****************************************************

Old exchange energy                            =    -37.593466736 Eh
New exchange energy                            =    -37.593466495 Eh
Exchange energy change after final integration =      0.000000241 Eh
Total energy after final integration           =  -2847.678237057 Eh
Final COS-X integration done in                =    11.086 sec

----------------
TOTAL SCF ENERGY
----------------

Total Energy       :        -2847.67823706 Eh          -77489.26431 eV

Components:
Nuclear Repulsion  :         1515.68141186 Eh           41243.78801 eV
Electronic Energy  :        -4363.35964892 Eh         -118733.05232 eV
One Electron Energy:        -6982.08659749 Eh         -189992.23534 eV
Two Electron Energy:         2618.72694857 Eh           71259.18302 eV
Max COSX asymmetry :            0.00000345 Eh               0.00009 eV

Virial components:
Potential Energy   :        -5688.48123463 Eh         -154791.44384 eV
Kinetic Energy     :         2840.80299757 Eh           77302.17953 eV
Virial Ratio       :            2.00242017


DFT components:
N(Alpha)           :       72.999962962657 electrons
N(Beta)            :       71.999963956380 electrons
N(Total)           :      144.999926919037 electrons
E(X)               :     -149.502296636043 Eh       
E(C)               :       -6.522605079502 Eh       
E(XC)              :     -156.024901715545 Eh       
DFET-embed. en.    :        0.000000000000 Eh       

---------------
SCF CONVERGENCE
---------------

  Last Energy change         ...    8.3282e-09  Tolerance :   1.0000e-06
  Last MAX-Density change    ...    0.0000e+00  Tolerance :   1.0000e-05
  Last RMS-Density change    ...    0.0000e+00  Tolerance :   1.0000e-06
  Last DIIS Error            ...    1.1090e-05  Tolerance :   1.0000e-06

             **** THE GBW FILE WAS UPDATED (input_18.gbw) ****
             **** DENSITY input_18.scfp WAS UPDATED ****
             **** ENERGY FILE WAS UPDATED (input_18.en.tmp) ****
----------------------
UHF SPIN CONTAMINATION
----------------------

Warning: in a DFT calculation there is little theoretical justification to 
         calculate <S**2> as in Hartree-Fock theory. We will do it anyways
         but you should keep in mind that the values have only limited relevance

Expectation value of <S**2>     :     0.770098
Ideal value S*(S+1) for S=0.5   :     0.750000
Deviation                       :     0.020098

             **** THE GBW FILE WAS UPDATED (input_18.gbw) ****
             **** DENSITY input_18.scfp WAS UPDATED ****
----------------
ORBITAL ENERGIES
----------------
                 SPIN UP ORBITALS
  NO   OCC          E(Eh)            E(eV) 
   0   1.0000    -196.608936     -5350.0011 
   1   1.0000     -88.573476     -2410.2068 
   2   1.0000     -88.565837     -2409.9990 
   3   1.0000     -88.553690     -2409.6684 
   4   1.0000     -88.549944     -2409.5665 
   5   1.0000     -21.984110      -598.2180 
   6   1.0000     -18.822533      -512.1872 
   7   1.0000     -18.491750      -503.1861 
   8   1.0000     -18.484931      -503.0005 
   9   1.0000     -18.484605      -502.9917 
  10   1.0000      -9.952395      -270.8184 
  11   1.0000      -9.945783      -270.6385 
  12   1.0000      -9.935150      -270.3492 
  13   1.0000      -9.934964      -270.3441 
  14   1.0000      -9.930815      -270.2312 
  15   1.0000      -9.929101      -270.1846 
  16   1.0000      -7.629898      -207.6201 
  17   1.0000      -7.622069      -207.4071 
  18   1.0000      -7.604828      -206.9379 
  19   1.0000      -7.603424      -206.8997 
  20   1.0000      -5.594737      -152.2405 
  21   1.0000      -5.588446      -152.0693 
  22   1.0000      -5.587480      -152.0431 
  23   1.0000      -5.587185      -152.0350 
  24   1.0000      -5.580715      -151.8590 
  25   1.0000      -5.579453      -151.8246 
  26   1.0000      -5.570801      -151.5892 
  27   1.0000      -5.568787      -151.5344 
  28   1.0000      -5.564125      -151.4075 
  29   1.0000      -5.562781      -151.3710 
  30   1.0000      -5.561439      -151.3344 
  31   1.0000      -5.560257      -151.3023 
  32   1.0000      -2.377133       -64.6851 
  33   1.0000      -1.417882       -38.5825 
  34   1.0000      -1.405841       -38.2549 
  35   1.0000      -1.405454       -38.2443 
  36   1.0000      -0.583008       -15.8645 
  37   1.0000      -0.555372       -15.1124 
  38   1.0000      -0.548060       -14.9135 
  39   1.0000      -0.468513       -12.7489 
  40   1.0000      -0.461459       -12.5569 
  41   1.0000      -0.406927       -11.0731 
  42   1.0000      -0.395340       -10.7577 
  43   1.0000      -0.342300        -9.3145 
  44   1.0000      -0.329737        -8.9726 
  45   1.0000      -0.297833        -8.1045 
  46   1.0000      -0.285755        -7.7758 
  47   1.0000      -0.218336        -5.9412 
  48   1.0000      -0.206805        -5.6275 
  49   1.0000      -0.205536        -5.5929 
  50   1.0000      -0.197523        -5.3749 
  51   1.0000      -0.154706        -4.2098 
  52   1.0000      -0.137962        -3.7541 
  53   1.0000      -0.135171        -3.6782 
  54   1.0000      -0.112339        -3.0569 
  55   1.0000      -0.108904        -2.9634 
  56   1.0000      -0.102378        -2.7859 
  57   1.0000      -0.091573        -2.4918 
  58   1.0000      -0.067370        -1.8332 
  59   1.0000      -0.058315        -1.5868 
  60   1.0000      -0.056585        -1.5398 
  61   1.0000      -0.036601        -0.9960 
  62   1.0000      -0.036175        -0.9844 
  63   1.0000      -0.027393        -0.7454 
  64   1.0000      -0.004730        -0.1287 
  65   1.0000       0.017726         0.4823 
  66   1.0000       0.022179         0.6035 
  67   1.0000       0.034975         0.9517 
  68   1.0000       0.040103         1.0913 
  69   1.0000       0.063934         1.7397 
  70   1.0000       0.076004         2.0682 
  71   1.0000       0.079624         2.1667 
  72   1.0000       0.085267         2.3202 
  73   0.0000       0.222030         6.0417 
  74   0.0000       0.228380         6.2145 
  75   0.0000       0.242541         6.5999 
  76   0.0000       0.250901         6.8274 
  77   0.0000       0.256434         6.9779 
  78   0.0000       0.266759         7.2589 
  79   0.0000       0.276121         7.5136 
  80   0.0000       0.285883         7.7793 
  81   0.0000       0.289866         7.8877 
  82   0.0000       0.291893         7.9428 
  83   0.0000       0.298785         8.1304 
  84   0.0000       0.300880         8.1874 
  85   0.0000       0.314265         8.5516 
  86   0.0000       0.318512         8.6672 
  87   0.0000       0.325733         8.8637 
  88   0.0000       0.330705         8.9989 
  89   0.0000       0.333755         9.0819 
  90   0.0000       0.347092         9.4449 
  91   0.0000       0.355540         9.6747 
  92   0.0000       0.361055         9.8248 
  93   0.0000       0.371431        10.1072 
  94   0.0000       0.378646        10.3035 
  95   0.0000       0.401972        10.9382 
  96   0.0000       0.407802        11.0968 
  97   0.0000       0.417159        11.3515 
  98   0.0000       0.427272        11.6266 
  99   0.0000       0.431200        11.7336 
 100   0.0000       0.437283        11.8991 
 101   0.0000       0.442293        12.0354 
 102   0.0000       0.448455        12.2031 
 103   0.0000       0.455930        12.4065 
 104   0.0000       0.460281        12.5249 
 105   0.0000       0.464854        12.6493 
 106   0.0000       0.481812        13.1108 
 107   0.0000       0.484581        13.1861 
 108   0.0000       0.500296        13.6137 
 109   0.0000       0.508740        13.8435 
 110   0.0000       0.524856        14.2820 
 111   0.0000       0.527092        14.3429 
 112   0.0000       0.532540        14.4912 
 113   0.0000       0.538214        14.6455 
 114   0.0000       0.558642        15.2014 
 115   0.0000       0.559803        15.2330 
 116   0.0000       0.574306        15.6276 
 117   0.0000       0.575389        15.6571 
 118   0.0000       0.581524        15.8241 
 119   0.0000       0.591920        16.1070 
 120   0.0000       0.607154        16.5215 
 121   0.0000       0.610534        16.6135 
 122   0.0000       0.617865        16.8130 
 123   0.0000       0.626111        17.0374 
 124   0.0000       0.635954        17.3052 
 125   0.0000       0.637070        17.3356 
 126   0.0000       0.646781        17.5998 
 127   0.0000       0.648558        17.6482 
 128   0.0000       0.660241        17.9661 
 129   0.0000       0.664128        18.0718 
 130   0.0000       0.667190        18.1552 
 131   0.0000       0.669627        18.2215 
 132   0.0000       0.675218        18.3736 
 133   0.0000       0.678128        18.4528 
 134   0.0000       0.683750        18.6058 
 135   0.0000       0.692362        18.8401 
 136   0.0000       0.693056        18.8590 
 137   0.0000       0.703136        19.1333 
 138   0.0000       0.710440        19.3320 
 139   0.0000       0.713441        19.4137 
 140   0.0000       0.717560        19.5258 
 141   0.0000       0.729054        19.8386 
 142   0.0000       0.733160        19.9503 
 143   0.0000       0.748596        20.3703 
 144   0.0000       0.750427        20.4202 
 145   0.0000       0.771724        20.9997 
 146   0.0000       0.784490        21.3471 
 147   0.0000       0.793509        21.5925 
 148   0.0000       0.810814        22.0634 
 149   0.0000       0.818355        22.2686 
 150   0.0000       0.830210        22.5912 
 151   0.0000       0.836971        22.7751 
 152   0.0000       0.856865        23.3165 
 153   0.0000       0.871148        23.7051 
 154   0.0000       0.883737        24.0477 
 155   0.0000       0.892305        24.2809 
 156   0.0000       0.942928        25.6584 
 157   0.0000       0.967141        26.3173 
 158   0.0000       0.969682        26.3864 
 159   0.0000       0.983232        26.7551 
 160   0.0000       0.998981        27.1837 
 161   0.0000       1.009278        27.4639 
 162   0.0000       1.015675        27.6379 
 163   0.0000       1.038185        28.2505 
 164   0.0000       1.043139        28.3852 
 165   0.0000       1.058282        28.7973 
 166   0.0000       1.066975        29.0339 
 167   0.0000       1.090514        29.6744 
 168   0.0000       1.100741        29.9527 
 169   0.0000       1.111312        30.2403 
 170   0.0000       1.125213        30.6186 
 171   0.0000       1.139269        31.0011 
 172   0.0000       1.155516        31.4432 
 173   0.0000       1.167415        31.7670 
 174   0.0000       1.175480        31.9864 
 175   0.0000       1.208521        32.8855 
 176   0.0000       1.238684        33.7063 
 177   0.0000       1.269938        34.5568 
 178   0.0000       1.274540        34.6820 
 179   0.0000       1.292405        35.1681 
 180   0.0000       1.308577        35.6082 
 181   0.0000       1.330334        36.2002 
 182   0.0000       1.384583        37.6764 
 183   0.0000       1.392854        37.9015 
 184   0.0000       1.420943        38.6658 
 185   0.0000       1.428109        38.8608 
 186   0.0000       1.437020        39.1033 
 187   0.0000       1.449563        39.4446 
 188   0.0000       1.461987        39.7827 
 189   0.0000       1.523283        41.4506 
 190   0.0000       1.528089        41.5814 
 191   0.0000       1.537387        41.8344 
 192   0.0000       1.549447        42.1626 
 193   0.0000       1.555039        42.3148 
 194   0.0000       1.564394        42.5693 
 195   0.0000       1.568500        42.6810 
 196   0.0000       1.585479        43.1431 
 197   0.0000       1.590680        43.2846 
 198   0.0000       1.620937        44.1079 
 199   0.0000       1.625954        44.2445 
 200   0.0000       1.633873        44.4599 
 201   0.0000       1.636009        44.5181 
 202   0.0000       1.652610        44.9698 
 203   0.0000       1.662840        45.2482 
 204   0.0000       1.680612        45.7318 
 205   0.0000       1.687737        45.9257 
 206   0.0000       1.702090        46.3162 
 207   0.0000       1.709728        46.5241 
 208   0.0000       1.717371        46.7321 
 209   0.0000       1.725667        46.9578 
 210   0.0000       1.744055        47.4582 
 211   0.0000       1.744874        47.4804 
 212   0.0000       1.768597        48.1260 
 213   0.0000       1.792486        48.7760 
 214   0.0000       1.803841        49.0850 
 215   0.0000       1.823851        49.6295 
 216   0.0000       1.847034        50.2603 
 217   0.0000       1.859376        50.5962 
 218   0.0000       1.875323        51.0301 
 219   0.0000       1.906975        51.8914 
 220   0.0000       1.917519        52.1784 
 221   0.0000       1.925865        52.4055 
 222   0.0000       1.938717        52.7552 
 223   0.0000       1.943714        52.8911 
 224   0.0000       1.985181        54.0195 
 225   0.0000       2.001402        54.4609 
 226   0.0000       2.005769        54.5797 
 227   0.0000       2.036808        55.4244 
 228   0.0000       2.039115        55.4871 
 229   0.0000       2.048458        55.7414 
 230   0.0000       2.052927        55.8630 
 231   0.0000       2.071537        56.3694 
 232   0.0000       2.083436        56.6932 
 233   0.0000       2.092181        56.9311 
 234   0.0000       2.100672        57.1622 
 235   0.0000       2.116270        57.5866 
 236   0.0000       2.136151        58.1276 
 237   0.0000       2.148607        58.4666 
 238   0.0000       2.158728        58.7420 
 239   0.0000       2.187156        59.5155 
 240   0.0000       2.190029        59.5937 
 241   0.0000       2.198380        59.8209 
 242   0.0000       2.210339        60.1464 
 243   0.0000       2.215217        60.2791 
 244   0.0000       2.252427        61.2916 
 245   0.0000       2.267880        61.7121 
 246   0.0000       2.274997        61.9058 
 247   0.0000       2.301217        62.6193 
 248   0.0000       2.310281        62.8659 
 249   0.0000       2.327057        63.3224 
 250   0.0000       2.342659        63.7470 
 251   0.0000       2.363285        64.3082 
 252   0.0000       2.368348        64.4460 
 253   0.0000       2.388273        64.9882 
 254   0.0000       2.409296        65.5603 
 255   0.0000       2.424836        65.9832 
 256   0.0000       2.457578        66.8741 
 257   0.0000       2.490694        67.7752 
 258   0.0000       2.506093        68.1943 
 259   0.0000       2.524625        68.6985 
 260   0.0000       2.549163        69.3663 
 261   0.0000       2.568080        69.8810 
 262   0.0000       2.573470        70.0277 
 263   0.0000       2.589306        70.4586 
 264   0.0000       2.606033        70.9138 
 265   0.0000       2.628439        71.5235 
 266   0.0000       2.630969        71.5923 
 267   0.0000       2.672976        72.7354 
 268   0.0000       2.689107        73.1743 
 269   0.0000       2.701640        73.5154 
 270   0.0000       2.728667        74.2508 
 271   0.0000       2.753764        74.9337 
 272   0.0000       2.774043        75.4855 
 273   0.0000       2.778478        75.6062 
 274   0.0000       2.798912        76.1623 
 275   0.0000       2.826356        76.9091 
 276   0.0000       2.840529        77.2947 
 277   0.0000       2.843679        77.3804 
 278   0.0000       2.874881        78.2295 
 279   0.0000       2.888062        78.5882 
 280   0.0000       2.895196        78.7823 
 281   0.0000       2.903965        79.0209 
 282   0.0000       2.913625        79.2838 
 283   0.0000       2.930392        79.7400 
 284   0.0000       2.946379        80.1751 
 285   0.0000       2.950948        80.2994 
 286   0.0000       2.959210        80.5242 
 287   0.0000       2.968658        80.7813 
 288   0.0000       2.990494        81.3755 
 289   0.0000       2.998338        81.5889 
 290   0.0000       3.019148        82.1552 
 291   0.0000       3.035647        82.6042 
 292   0.0000       3.051736        83.0420 
 293   0.0000       3.066735        83.4501 
 294   0.0000       3.087332        84.0106 
 295   0.0000       3.119159        84.8766 
 296   0.0000       3.144883        85.5766 
 297   0.0000       3.241210        88.1978 
 298   0.0000       3.271238        89.0149 
 299   0.0000       3.354678        91.2854 
 300   0.0000       3.392231        92.3073 
 301   0.0000       3.416593        92.9702 
 302   0.0000       3.453851        93.9841 
 303   0.0000       3.538713        96.2933 
 304   0.0000       3.546709        96.5109 
 305   0.0000       3.567720        97.0826 
 306   0.0000       3.576499        97.3215 
 307   0.0000       3.600070        97.9629 
 308   0.0000       3.608285        98.1864 
 309   0.0000       3.621330        98.5414 
 310   0.0000       3.649453        99.3067 
 311   0.0000       3.667623        99.8011 
 312   0.0000       3.685110       100.2769 
 313   0.0000       3.850808       104.7858 
 314   0.0000       3.877703       105.5176 
 315   0.0000       3.926230       106.8381 
 316   0.0000       4.026781       109.5743 
 317   0.0000       4.249502       115.6348 
 318   0.0000       4.576209       124.5250 
 319   0.0000       4.586796       124.8131 
 320   0.0000       4.601422       125.2111 
 321   0.0000       4.629643       125.9790 
 322   0.0000       4.635718       126.1443 
 323   0.0000       4.644093       126.3722 
 324   0.0000       5.132753       139.6693 
 325   0.0000       7.037179       191.4914 
 326   0.0000       7.117948       193.6892 
 327   0.0000       7.168416       195.0625 
 328   0.0000      18.783797       511.1331 
 329   0.0000      18.839058       512.6368 
 330   0.0000      19.036363       518.0058 
 331   0.0000      19.092685       519.5384 
 332   0.0000      19.787007       538.4318 
 333   0.0000      22.190452       603.8329 
 334   0.0000      22.193417       603.9136 
 335   0.0000      22.213753       604.4669 
 336   0.0000      22.264891       605.8585 
 337   0.0000      22.306041       606.9782 
 338   0.0000      22.358126       608.3955 
 339   0.0000      43.679806      1188.5879 
 340   0.0000     128.730510      3502.9353 
 341   0.0000     158.424688      4310.9549 
 342   0.0000     158.479383      4312.4433 
 343   0.0000     158.515997      4313.4396 
 344   0.0000     555.890993     15126.5629 
 345   0.0000    1893.294083     51519.1512 
 346   0.0000    6235.804595    169684.8696 
 347   0.0000   22016.232763    599092.1507 
 348   0.0000   90690.783651   2467821.6848 
 349   0.0000   462517.525300   12585741.7101 
 350   0.0000   1711386.081608   46569182.8121 
 351   0.0000   5079093.286423   138209154.7412 
 352   0.0000   14523636.802955   395208249.4076 

                 SPIN DOWN ORBITALS
  NO   OCC          E(Eh)            E(eV) 
   0   1.0000    -196.609037     -5350.0039 
   1   1.0000     -88.573620     -2410.2107 
   2   1.0000     -88.565804     -2409.9980 
   3   1.0000     -88.553912     -2409.6744 
   4   1.0000     -88.550029     -2409.5688 
   5   1.0000     -21.969183      -597.8119 
   6   1.0000     -18.826109      -512.2845 
   7   1.0000     -18.486392      -503.0403 
   8   1.0000     -18.468899      -502.5643 
   9   1.0000     -18.468525      -502.5541 
  10   1.0000      -9.952152      -270.8118 
  11   1.0000      -9.945378      -270.6275 
  12   1.0000      -9.935130      -270.3486 
  13   1.0000      -9.934942      -270.3435 
  14   1.0000      -9.930780      -270.2303 
  15   1.0000      -9.929069      -270.1837 
  16   1.0000      -7.630035      -207.6238 
  17   1.0000      -7.622038      -207.4062 
  18   1.0000      -7.605041      -206.9437 
  19   1.0000      -7.603506      -206.9019 
  20   1.0000      -5.594947      -152.2462 
  21   1.0000      -5.588747      -152.0775 
  22   1.0000      -5.587584      -152.0459 
  23   1.0000      -5.587249      -152.0368 
  24   1.0000      -5.580932      -151.8649 
  25   1.0000      -5.579027      -151.8130 
  26   1.0000      -5.570945      -151.5931 
  27   1.0000      -5.568853      -151.5362 
  28   1.0000      -5.564793      -151.4257 
  29   1.0000      -5.563293      -151.3849 
  30   1.0000      -5.561580      -151.3383 
  31   1.0000      -5.560044      -151.2965 
  32   1.0000      -2.332580       -63.4727 
  33   1.0000      -1.397824       -38.0367 
  34   1.0000      -1.345305       -36.6076 
  35   1.0000      -1.343927       -36.5701 
  36   1.0000      -0.590937       -16.0802 
  37   1.0000      -0.555102       -15.1051 
  38   1.0000      -0.547781       -14.9059 
  39   1.0000      -0.468282       -12.7426 
  40   1.0000      -0.461274       -12.5519 
  41   1.0000      -0.406946       -11.0736 
  42   1.0000      -0.395310       -10.7569 
  43   1.0000      -0.342374        -9.3165 
  44   1.0000      -0.330005        -8.9799 
  45   1.0000      -0.298031        -8.1098 
  46   1.0000      -0.285849        -7.7784 
  47   1.0000      -0.218218        -5.9380 
  48   1.0000      -0.206680        -5.6241 
  49   1.0000      -0.205345        -5.5877 
  50   1.0000      -0.197189        -5.3658 
  51   1.0000      -0.154359        -4.2003 
  52   1.0000      -0.137790        -3.7495 
  53   1.0000      -0.134462        -3.6589 
  54   1.0000      -0.112229        -3.0539 
  55   1.0000      -0.108813        -2.9609 
  56   1.0000      -0.102157        -2.7798 
  57   1.0000      -0.089577        -2.4375 
  58   1.0000      -0.065416        -1.7801 
  59   1.0000      -0.056923        -1.5490 
  60   1.0000      -0.056362        -1.5337 
  61   1.0000      -0.038335        -1.0432 
  62   1.0000      -0.037062        -1.0085 
  63   1.0000      -0.028826        -0.7844 
  64   1.0000       0.002169         0.0590 
  65   1.0000       0.020347         0.5537 
  66   1.0000       0.029963         0.8153 
  67   1.0000       0.036655         0.9974 
  68   1.0000       0.047902         1.3035 
  69   1.0000       0.068197         1.8557 
  70   1.0000       0.077324         2.1041 
  71   1.0000       0.080846         2.1999 
  72   0.0000       0.224947         6.1211 
  73   0.0000       0.242864         6.6087 
  74   0.0000       0.246840         6.7169 
  75   0.0000       0.251067         6.8319 
  76   0.0000       0.257197         6.9987 
  77   0.0000       0.263520         7.1707 
  78   0.0000       0.275849         7.5062 
  79   0.0000       0.282229         7.6798 
  80   0.0000       0.287402         7.8206 
  81   0.0000       0.291144         7.9224 
  82   0.0000       0.293890         7.9971 
  83   0.0000       0.299295         8.1442 
  84   0.0000       0.301676         8.2090 
  85   0.0000       0.315403         8.5825 
  86   0.0000       0.322475         8.7750 
  87   0.0000       0.326325         8.8798 
  88   0.0000       0.332100         9.0369 
  89   0.0000       0.333858         9.0847 
  90   0.0000       0.347957         9.4684 
  91   0.0000       0.355854         9.6833 
  92   0.0000       0.362735         9.8705 
  93   0.0000       0.372332        10.1317 
  94   0.0000       0.378905        10.3105 
  95   0.0000       0.403765        10.9870 
  96   0.0000       0.408221        11.1083 
  97   0.0000       0.419345        11.4110 
  98   0.0000       0.427625        11.6363 
  99   0.0000       0.432019        11.7558 
 100   0.0000       0.439175        11.9506 
 101   0.0000       0.442879        12.0514 
 102   0.0000       0.448659        12.2086 
 103   0.0000       0.456781        12.4297 
 104   0.0000       0.461665        12.5625 
 105   0.0000       0.466279        12.6881 
 106   0.0000       0.482190        13.1211 
 107   0.0000       0.485570        13.2130 
 108   0.0000       0.501618        13.6497 
 109   0.0000       0.510203        13.8833 
 110   0.0000       0.527221        14.3464 
 111   0.0000       0.529383        14.4052 
 112   0.0000       0.537015        14.6129 
 113   0.0000       0.539662        14.6850 
 114   0.0000       0.559593        15.2273 
 115   0.0000       0.561452        15.2779 
 116   0.0000       0.574603        15.6357 
 117   0.0000       0.576603        15.6902 
 118   0.0000       0.582376        15.8473 
 119   0.0000       0.592395        16.1199 
 120   0.0000       0.607704        16.5365 
 121   0.0000       0.611141        16.6300 
 122   0.0000       0.618234        16.8230 
 123   0.0000       0.626852        17.0575 
 124   0.0000       0.636610        17.3230 
 125   0.0000       0.637577        17.3493 
 126   0.0000       0.646799        17.6003 
 127   0.0000       0.650175        17.6921 
 128   0.0000       0.660429        17.9712 
 129   0.0000       0.664509        18.0822 
 130   0.0000       0.667542        18.1648 
 131   0.0000       0.670078        18.2338 
 132   0.0000       0.675313        18.3762 
 133   0.0000       0.678137        18.4530 
 134   0.0000       0.685489        18.6531 
 135   0.0000       0.692967        18.8566 
 136   0.0000       0.694022        18.8853 
 137   0.0000       0.703836        19.1523 
 138   0.0000       0.711086        19.3496 
 139   0.0000       0.713923        19.4268 
 140   0.0000       0.717791        19.5321 
 141   0.0000       0.729501        19.8507 
 142   0.0000       0.734193        19.9784 
 143   0.0000       0.748758        20.3748 
 144   0.0000       0.750532        20.4230 
 145   0.0000       0.772213        21.0130 
 146   0.0000       0.785221        21.3669 
 147   0.0000       0.794549        21.6208 
 148   0.0000       0.811087        22.0708 
 149   0.0000       0.820100        22.3161 
 150   0.0000       0.832832        22.6625 
 151   0.0000       0.836991        22.7757 
 152   0.0000       0.857519        23.3343 
 153   0.0000       0.870593        23.6900 
 154   0.0000       0.884586        24.0708 
 155   0.0000       0.894068        24.3288 
 156   0.0000       0.944105        25.6904 
 157   0.0000       0.968355        26.3503 
 158   0.0000       0.970821        26.4174 
 159   0.0000       0.987210        26.8634 
 160   0.0000       0.999498        27.1977 
 161   0.0000       1.010412        27.4947 
 162   0.0000       1.016042        27.6479 
 163   0.0000       1.038157        28.2497 
 164   0.0000       1.044373        28.4188 
 165   0.0000       1.059219        28.8228 
 166   0.0000       1.067707        29.0538 
 167   0.0000       1.091432        29.6994 
 168   0.0000       1.101424        29.9713 
 169   0.0000       1.112234        30.2654 
 170   0.0000       1.126731        30.6599 
 171   0.0000       1.141610        31.0648 
 172   0.0000       1.157123        31.4869 
 173   0.0000       1.171387        31.8751 
 174   0.0000       1.175684        31.9920 
 175   0.0000       1.209616        32.9153 
 176   0.0000       1.245087        33.8805 
 177   0.0000       1.271606        34.6022 
 178   0.0000       1.274988        34.6942 
 179   0.0000       1.307922        35.5904 
 180   0.0000       1.312097        35.7040 
 181   0.0000       1.332717        36.2651 
 182   0.0000       1.390746        37.8441 
 183   0.0000       1.397763        38.0351 
 184   0.0000       1.422538        38.7092 
 185   0.0000       1.429874        38.9089 
 186   0.0000       1.437768        39.1237 
 187   0.0000       1.450734        39.4765 
 188   0.0000       1.465241        39.8712 
 189   0.0000       1.523850        41.4661 
 190   0.0000       1.528908        41.6037 
 191   0.0000       1.538516        41.8651 
 192   0.0000       1.549636        42.1677 
 193   0.0000       1.555344        42.3231 
 194   0.0000       1.565076        42.5879 
 195   0.0000       1.569113        42.6977 
 196   0.0000       1.585880        43.1540 
 197   0.0000       1.591152        43.2974 
 198   0.0000       1.621508        44.1235 
 199   0.0000       1.626294        44.2537 
 200   0.0000       1.634268        44.4707 
 201   0.0000       1.636580        44.5336 
 202   0.0000       1.653022        44.9810 
 203   0.0000       1.663563        45.2679 
 204   0.0000       1.682126        45.7730 
 205   0.0000       1.689860        45.9834 
 206   0.0000       1.703998        46.3681 
 207   0.0000       1.711178        46.5635 
 208   0.0000       1.723463        46.8978 
 209   0.0000       1.729623        47.0654 
 210   0.0000       1.746778        47.5322 
 211   0.0000       1.750935        47.6454 
 212   0.0000       1.773484        48.2589 
 213   0.0000       1.795226        48.8506 
 214   0.0000       1.809243        49.2320 
 215   0.0000       1.824851        49.6567 
[...]
Perturbations treated per batch... 3
Number of batches              ... 1
     CP-SCF ITERATION   0:   4.6241e-02 (   2.5 sec   0/  3 done)
     CP-SCF ITERATION   1:   3.4567e-03 (   2.5 sec   0/  3 done)
     CP-SCF ITERATION   2:   1.2835e-03 (   2.6 sec   1/  3 done)
     CP-SCF ITERATION   3:   2.2565e-04 (   2.1 sec   3/  3 done)
                    *** THE CP-SCF HAS CONVERGED ***

Forming final perturbed densities           ... done
Transforming perturbed density to AO basis  ... done

 Raw HFC matrix (all values in MHz): 
 -----------------------------------
                -2.1213               0.0442               0.0677
                 0.0424              -1.6928               1.2015
                 0.0739               1.2028               0.0235

 A(FC)          -1.2659              -1.2659              -1.2659
 A(SD)           1.9281              -0.8657              -1.0624
 A(ORB+DIA)     -0.0174               0.0080               0.0165    A(PC) =   0.0024
 A(ORB)         -0.0178               0.0083               0.0167    A(PC) =   0.0024
 A(DIA)          0.0004              -0.0002              -0.0001    A(PC) =   0.0000
             ----------           ----------           ----------
 A(Tot)          0.6448              -2.1236              -2.3118    A(iso)=   -1.2635
 Orientation: 
  X           0.0290655           -0.9985968            0.0442671
  Y           0.4575250           -0.0260836           -0.8888141
  Z           0.8887216            0.0460871            0.4561248

Notes:  (1) The A matrix conforms to the "SAI" spin Hamiltonian convention.
        (2) Tensor is right-handed.

 Raw EFG matrix (all values in a.u.**-3):
 -----------------------------------
            -0.1095      -0.0672      -0.0921
            -0.0672      -0.0158       0.1891
            -0.0921       0.1891       0.1253

 V(El)       0.5779       0.7996      -1.3775
 V(Nuc)     -0.7189      -0.9478       1.6667
         ----------   ----------   ----------
 V(Tot)     -0.1410      -0.1482       0.2892 
 Orientation: 
  X      -0.8853783   -0.3749582   -0.2747938
  Y       0.1752354   -0.8167081    0.5498004
  Z      -0.4305785    0.4386277    0.7888016

Note: Tensor is right-handed


 Quadrupole tensor eigenvalues (in MHz;Q= 0.0029 I=  1.0)
  e**2qQ            =     0.194193 MHz 
  e**2qQ/(4I*(2I-1))=     0.048548 MHz 
  eta               =     0.024775
  NOTE: the diagonal representation of the SH term I*Q*I = e**2qQ/(4I(2I-1))*[-(1-eta),-(1+eta),2]

 RHO(0)=      0.446648396 a.u.**-3

 -----------------------------------------------------------
 Nucleus  23H : A:ISTP=    1 I=  0.5 P=533.5514 MHz/au**3
                Q:ISTP=    2 I=  1.0 Q=  0.0029 barn     
 -----------------------------------------------------------
 Solving for nuclear perturbation:
Forming RHS of the CP-SCF equations         ... 
Calc. nucleus orbit integrals (SHARK)       ... done

------------------------------------------------------------------------------
                           ORCA CP-SCF CALCULATION
------------------------------------------------------------------------------

Input orbitals are from        ... input_18.gbw
Input Perturbation             ... input_18.pin.tmp
Wavefunction output            ... input_18.pout.tmp
Perturbation mode              ... Imaginary perturbation
Solver                         ... POPLE
Max. number of iterations      ... 64
Convergence tolerance          ... 1.000e-03
Integral handling              ... Direct
DFT GridXC                     ... 1
COSX GridX                     ... 1
COSX IntAccX                   ... 3.067
COSX Algorithm                 ... Auto
Number of perturbations        ... 3
Number of operators            ... 2
Orbital ranges used for CP-SCF:
 Operator 0:  Orbitals   0... 72  to  73...352
 Operator 1:  Orbitals   0... 71  to  72...352
Variables per perturbation     ... 40672
DFT calculation                         ... on
XC functional terms                     ... off
Hybrid DFT                              ... on
   Exchange mixing (SCF)                ...  0.200
   Exchange mixing (CP-SCF)             ...  0.200
   GGA exch. scaling(SCF)               ...  0.720
   GGA exch. scaling (CP-SCF)           ...  0.720
   GGA corr. scaling (SCF)              ...  0.810
   GGA corr. scaling (CP-SCF)           ...  0.810

CP-SCF GRID
-----------

General Integration Accuracy     IntAcc      ... 3.467
Radial Grid Type                 RadialGrid  ... OptM3 with GC (2021)
Angular Grid (max. ang.)         AngularGrid ... 1 (Lebedev-50)
Angular grid pruning method      GridPruning ... 4 (adaptive)
Weight generation scheme         WeightScheme... Becke
Basis function cutoff            BFCut       ... 1.0000e-10
Integration weight cutoff        WCut        ... 1.0000e-14
Angular grids for H and He will be reduced by one unit
Partially contracted basis set               ... off
Rotationally invariant grid construction     ... off

Total number of grid points                  ...    23543
Total number of batches                      ...      380
Average number of points per batch           ...       61
Average number of grid points per atom       ...      981

CP-SCF GRIDX
------------

General Integration Accuracy     IntAcc      ... 3.067
Radial Grid Type                 RadialGrid  ... OptM3 with GC (2021)
Angular Grid (max. ang.)         AngularGrid ... 1 (Lebedev-50)
Angular grid pruning method      GridPruning ... 4 (adaptive)
Weight generation scheme         WeightScheme... Becke
Basis function cutoff            BFCut       ... 1.0000e-10
Integration weight cutoff        WCut        ... 1.0000e-14
Angular grids for H and He will be reduced by one unit
Partially contracted basis set               ... on
Rotationally invariant grid construction     ... off

Total number of grid points                  ...    10193
Total number of batches                      ...      171
Average number of points per batch           ...       59
Average number of grid points per atom       ...      425

Memory available               ... 900.3 MB
Memory needed per perturbation ...  15.7 MB
Perturbations treated per batch... 3
Number of batches              ... 1
     CP-SCF ITERATION   0:   4.9009e-02 (   2.5 sec   0/  3 done)
     CP-SCF ITERATION   1:   8.3310e-03 (   2.6 sec   0/  3 done)
     CP-SCF ITERATION   2:   1.8424e-03 (   2.6 sec   0/  3 done)
     CP-SCF ITERATION   3:   4.1431e-04 (   2.6 sec   3/  3 done)
                    *** THE CP-SCF HAS CONVERGED ***

Forming final perturbed densities           ... done
Transforming perturbed density to AO basis  ... done

 Raw HFC matrix (all values in MHz): 
 -----------------------------------
                -1.9708               0.0750              -0.0584
                 0.0701              -1.8223               0.8693
                -0.0593               0.8481               5.3166

 A(FC)           0.5063               0.5063               0.5063
 A(SD)          -2.4091              -2.5615               4.9706
 A(ORB+DIA)      0.0376               0.0252              -0.0581    A(PC) =   0.0016
 A(ORB)          0.0377               0.0255              -0.0594    A(PC) =   0.0012
 A(DIA)         -0.0001              -0.0003               0.0013    A(PC) =   0.0003
             ----------           ----------           ----------
 A(Tot)         -1.8652              -2.0300               5.4188    A(iso)=    0.5079
 Orientation: 
  X          -0.5955606            0.8032830           -0.0066377
  Y          -0.7980539           -0.5906996            0.1190959
  Z           0.0917468            0.0762261            0.9928606

Notes:  (1) The A matrix conforms to the "SAI" spin Hamiltonian convention.
        (2) Tensor is right-handed.

 Raw EFG matrix (all values in a.u.**-3):
 -----------------------------------
            -0.0228       0.1936      -0.0086
             0.1936       0.1650      -0.0176
            -0.0086      -0.0176      -0.1422

 V(El)       0.4345       0.5153      -0.9498
 V(Nuc)     -0.5759      -0.6611       1.2370
         ----------   ----------   ----------
 V(Tot)     -0.1414      -0.1457       0.2871 
 Orientation: 
  X       0.5404336    0.6533856    0.5301120
  Y      -0.2961999   -0.4419713    0.8467154
  Z       0.7875260   -0.6146126   -0.0453234

Note: Tensor is right-handed


 Quadrupole tensor eigenvalues (in MHz;Q= 0.0029 I=  1.0)
  e**2qQ            =     0.192814 MHz 
  e**2qQ/(4I*(2I-1))=     0.048203 MHz 
  eta               =     0.015015
  NOTE: the diagonal representation of the SH term I*Q*I = e**2qQ/(4I(2I-1))*[-(1-eta),-(1+eta),2]

 RHO(0)=      0.445482638 a.u.**-3

 -----------------------------------------------------------
 Nucleus   0V : A:ISTP=   51 I=  3.5 P=140.5173 MHz/au**3
                Q:ISTP=   51 I=  3.5 Q= -0.0430 barn     
 -----------------------------------------------------------
 Solving for nuclear perturbation:
Forming RHS of the CP-SCF equations         ... 
Calc. nucleus orbit integrals (SHARK)       ... done

------------------------------------------------------------------------------
                           ORCA CP-SCF CALCULATION
------------------------------------------------------------------------------

Input orbitals are from        ... input_18.gbw
Input Perturbation             ... input_18.pin.tmp
Wavefunction output            ... input_18.pout.tmp
Perturbation mode              ... Imaginary perturbation
Solver                         ... POPLE
Max. number of iterations      ... 64
Convergence tolerance          ... 1.000e-03
Integral handling              ... Direct
DFT GridXC                     ... 1
COSX GridX                     ... 1
COSX IntAccX                   ... 3.067
COSX Algorithm                 ... Auto
Number of perturbations        ... 3
Number of operators            ... 2
Orbital ranges used for CP-SCF:
 Operator 0:  Orbitals   0... 72  to  73...352
 Operator 1:  Orbitals   0... 71  to  72...352
Variables per perturbation     ... 40672
DFT calculation                         ... on
XC functional terms                     ... off
Hybrid DFT                              ... on
   Exchange mixing (SCF)                ...  0.200
   Exchange mixing (CP-SCF)             ...  0.200
   GGA exch. scaling(SCF)               ...  0.720
   GGA exch. scaling (CP-SCF)           ...  0.720
   GGA corr. scaling (SCF)              ...  0.810
   GGA corr. scaling (CP-SCF)           ...  0.810

CP-SCF GRID
-----------

General Integration Accuracy     IntAcc      ... 3.467
Radial Grid Type                 RadialGrid  ... OptM3 with GC (2021)
Angular Grid (max. ang.)         AngularGrid ... 1 (Lebedev-50)
Angular grid pruning method      GridPruning ... 4 (adaptive)
Weight generation scheme         WeightScheme... Becke
Basis function cutoff            BFCut       ... 1.0000e-10
Integration weight cutoff        WCut        ... 1.0000e-14
Angular grids for H and He will be reduced by one unit
Partially contracted basis set               ... off
Rotationally invariant grid construction     ... off

Total number of grid points                  ...    23543
Total number of batches                      ...      380
Average number of points per batch           ...       61
Average number of grid points per atom       ...      981

CP-SCF GRIDX
------------

General Integration Accuracy     IntAcc      ... 3.067
Radial Grid Type                 RadialGrid  ... OptM3 with GC (2021)
Angular Grid (max. ang.)         AngularGrid ... 1 (Lebedev-50)
Angular grid pruning method      GridPruning ... 4 (adaptive)
Weight generation scheme         WeightScheme... Becke
Basis function cutoff            BFCut       ... 1.0000e-10
Integration weight cutoff        WCut        ... 1.0000e-14
Angular grids for H and He will be reduced by one unit
Partially contracted basis set               ... on
Rotationally invariant grid construction     ... off

Total number of grid points                  ...    10193
Total number of batches                      ...      171
Average number of points per batch           ...       59
Average number of grid points per atom       ...      425

Memory available               ... 898.5 MB
Memory needed per perturbation ...  15.7 MB
Perturbations treated per batch... 3
Number of batches              ... 1
     CP-SCF ITERATION   0:   1.3993e+01 (   2.7 sec   0/  3 done)
     CP-SCF ITERATION   1:   3.8414e+00 (   2.6 sec   0/  3 done)
     CP-SCF ITERATION   2:   7.7169e-01 (   2.6 sec   0/  3 done)
     CP-SCF ITERATION   3:   2.5737e-01 (   2.6 sec   0/  3 done)
     CP-SCF ITERATION   4:   4.6360e-02 (   2.5 sec   0/  3 done)
     CP-SCF ITERATION   5:   1.2862e-02 (   2.6 sec   0/  3 done)
     CP-SCF ITERATION   6:   3.9774e-03 (   2.6 sec   0/  3 done)
     CP-SCF ITERATION   7:   1.0259e-03 (   2.6 sec   2/  3 done)
     CP-SCF ITERATION   8:   2.1260e-04 (   1.6 sec   3/  3 done)
                    *** THE CP-SCF HAS CONVERGED ***

Forming final perturbed densities           ... done
Transforming perturbed density to AO basis  ... done

 Raw HFC matrix (all values in MHz): 
 -----------------------------------
               -90.3046             -32.6212              67.9592
               -31.8555            -118.1658             107.3062
                66.5396             106.8651            -295.3894

 A(FC)        -155.1330            -155.1330            -155.1330
 A(SD)          96.6270              93.9584            -190.5854
 A(ORB+DIA)     -9.1662              -9.0663             -20.2285    A(PC) = -12.8203
 A(ORB)         -9.1661              -9.0664             -20.2284    A(PC) = -12.8203
 A(DIA)         -0.0000               0.0002              -0.0000    A(PC) =   0.0000
             ----------           ----------           ----------
 A(Tot)        -67.6722             -70.2409            -365.9468    A(iso)= -167.9533
 Orientation: 
  X           0.1984293           -0.9440875            0.2632958
  Y          -0.9082286           -0.0761321            0.4114908
  Z          -0.3684380           -0.3207846           -0.8725541

Notes:  (1) The A matrix conforms to the "SAI" spin Hamiltonian convention.
        (2) Tensor is right-handed.

 Raw EFG matrix (all values in a.u.**-3):
 -----------------------------------
             0.0504       0.1186      -0.7132
             0.1186      -0.3749       0.0609
            -0.7132       0.0609       0.3246

 V(El)      -0.3862      -0.7986       1.1848
 V(Nuc)      0.0826       0.1878      -0.2704
         ----------   ----------   ----------
 V(Tot)     -0.3036      -0.6108       0.9143 
 Orientation: 
  X      -0.3601800    0.6803679   -0.6382554
  Y      -0.8747398   -0.4840756   -0.0223825
  Z      -0.3241922    0.5502457    0.7694992

Note: Tensor is right-handed


 Quadrupole tensor eigenvalues (in MHz;Q=-0.0430 I=  3.5)
  e**2qQ            =    -9.237964 MHz 
  e**2qQ/(4I*(2I-1))=    -0.109976 MHz 
  eta               =     0.335996
  NOTE: the diagonal representation of the SH term I*Q*I = e**2qQ/(4I(2I-1))*[-(1-eta),-(1+eta),2]

 RHO(0)=   8115.151322885 a.u.**-3


--------------------------------------------------------------------------------
----------------------------------------------------------------------------
                           ORCA EULER ANGLE PROGRAM
----------------------------------------------------------------------------

Only g-tensor available        -->  using g-tensor as reference tensor

Reference tensor               ...  g

g-tensor ordering              ...  |g_min> --> |gx>
                                    |g_mid> --> |gy>
                                    |g_max> --> |gz>

A- and EFG-tensor ordering     ...  the axes |Ax>, |Qx>, |Ay>, etc. are assigned
                                    such that the Euler rotation is minimal. You
                                    can find the respective eigenvalues as Ax,
                                    EFGx, Ay, etc. in the tables below.
                                    The relation of |Ax>, |Ay>,  etc. to Amin, Amid, etc.
                                    (as printed in the ORCA EPR/NMR CALCULATION Output)
                                    is obtained in the detailed printout.

Euler rotation around          ...  z - y - z
   First rotation              -->  by alpha around z
   Second rotation             -->  by beta around y'
   Third rotation              -->  by gamma around z''
   Positive / Negative angle   -->  clockwise / counterclockwise rotation

Plot EFG-tensors                    (-)
Plot HFC-tensors                    (-)
Detailed Printout                   (-)

-------------------------------------------------------------------------
          Euler rotation of hyperfine tensor to g-tensor
-------------------------------------------------------------------------

-------------------------------------------------------------------
 Atom  |   Alpha    Beta    Gamma   |   Ax       Ay       Az 
       |          [degrees]         |           [MHz]         
-------------------------------------------------------------------
  9H       35.1     30.5    -16.2      -1.20     3.15    -1.32
 10H        5.3     43.1    -24.3      -3.08     0.78    -2.80
 11H      -24.8     46.7     40.1      -2.12     3.62    -1.80
 12H      -29.9     41.6     24.9       0.26     2.70     0.54
 13H      -92.8     33.3     59.2      -1.42     2.62    -1.70
 14H      116.1     40.8    -99.6      -2.09    -2.30     0.43
 18H      -57.5     44.9     59.3      -3.86     0.67    -3.42
 19H     -123.2     22.3    109.8      -3.35     2.21    -4.51
 20H       -4.4     30.3     34.5      -0.62     1.89    -0.68
 21H       21.6     12.2    -13.9       1.09     3.40     1.16
 22H      129.4     39.4   -116.2      -2.31     0.64    -2.12
 23H       83.9     21.1    -42.1      -1.87     5.42    -2.03
  0V      -69.5     39.5     60.9    -365.95   -70.24   -67.67
-------------------------------------------------------------------


-------------------------------------------------------------------------------
    Euler rotation of Electric Field Gradient (EFG) tensor to g-tensor
-------------------------------------------------------------------------------

-------------------------------------------------------------------
 Atom  |   Alpha    Beta    Gamma  |   EFGx     EFGy     EFGz
       |          [degrees]        |         [a.u.**-3]       
-------------------------------------------------------------------
  9H      -20.3     44.4      4.5      0.29    -0.15    -0.14
 10H       99.9     37.0    -60.0      0.29    -0.14    -0.14
 11H       61.3      2.7    -44.9      0.27    -0.14    -0.13
 12H      -91.8     18.0     91.8     -0.14     0.27    -0.13
 13H     -109.9     35.9    111.1      0.29    -0.15    -0.14
 14H      105.7     30.9    -72.5     -0.15    -0.14     0.29
 18H       72.3     31.2    -60.2     -0.15    -0.14     0.29
 19H      100.3     23.0    -97.9      0.29    -0.14    -0.15
 20H      168.3     13.1    179.8      0.28    -0.14    -0.14
 21H      162.2     27.7    168.4     -0.14     0.28    -0.14
 22H      -93.7     41.5    111.7     -0.15    -0.14     0.29
 23H      -98.4     21.3    141.2      0.29    -0.14    -0.15
  0V       23.6     50.1    -43.6      0.91    -0.30    -0.61
-------------------------------------------------------------------


Maximum memory used throughout the entire EPRNMR-calculation: 160.4 MB

Timings for individual modules:

Sum of individual times         ...      898.745 sec (=  14.979 min)
GTO integral calculation        ...        1.026 sec (=   0.017 min)   0.1 %
Spin-Orbit-Coupling Matrices    ...        5.276 sec (=   0.088 min)   0.6 %
SCF iterations                  ...      123.062 sec (=   2.051 min)  13.7 %
EPR/NMR calculation             ...      769.381 sec (=  12.823 min)  85.6 %
                             ****ORCA TERMINATED NORMALLY****
TOTAL RUN TIME: 0 days 0 hours 14 minutes 59 seconds 622 msec
