
                                 *****************
                                 * O   R   C   A *
                                 *****************

                                            #,                                       
                                            ###                                      
                                            ####                                     
                                            #####                                    
                                            ######                                   
                                           ########,                                 
                                     ,,################,,,,,                         
                               ,,#################################,,                 
                          ,,##########################################,,             
                       ,#########################################, ''#####,          
                    ,#############################################,,   '####,        
                  ,##################################################,,,,####,       
                ,###########''''           ''''###############################       
              ,#####''   ,,,,##########,,,,          '''####'''          '####       
            ,##' ,,,,###########################,,,                        '##       
           ' ,,###''''                  '''############,,,                           
         ,,##''                                '''############,,,,        ,,,,,,###''
      ,#''                                            '''#######################'''  
     '                                                          ''''####''''         
             ,#######,   #######,   ,#######,      ##                                
            ,#'     '#,  ##    ##  ,#'     '#,    #''#        ######   ,####,        
            ##       ##  ##   ,#'  ##            #'  '#       #        #'  '#        
            ##       ##  #######   ##           ,######,      #####,   #    #        
            '#,     ,#'  ##    ##  '#,     ,#' ,#      #,         ##   #,  ,#        
             '#######'   ##     ##  '#######'  #'      '#     #####' # '####'        



                  #######################################################
                  #                        -***-                        #
                  #          Department of theory and spectroscopy      #
                  #    Directorship and core code : Frank Neese         #
                  #        Max Planck Institute fuer Kohlenforschung    #
                  #                Kaiser Wilhelm Platz 1               #
                  #                 D-45470 Muelheim/Ruhr               #
                  #                      Germany                        #
                  #                                                     #
                  #                  All rights reserved                #
                  #                        -***-                        #
                  #######################################################


                         Program Version 5.0.4 -  RELEASE  -


 With contributions from (in alphabetic order):
   Daniel Aravena         : Magnetic Suceptibility
   Michael Atanasov       : Ab Initio Ligand Field Theory (pilot matlab implementation)
   Alexander A. Auer      : GIAO ZORA, VPT2 properties, NMR spectrum
   Ute Becker             : Parallelization
   Giovanni Bistoni       : ED, misc. LED, open-shell LED, HFLD
   Martin Brehm           : Molecular dynamics
   Dmytro Bykov           : SCF Hessian
   Vijay G. Chilkuri      : MRCI spin determinant printing, contributions to CSF-ICE
   Dipayan Datta          : RHF DLPNO-CCSD density
   Achintya Kumar Dutta   : EOM-CC, STEOM-CC
   Dmitry Ganyushin       : Spin-Orbit,Spin-Spin,Magnetic field MRCI
   Miquel Garcia          : C-PCM and meta-GGA Hessian, CC/C-PCM, Gaussian charge scheme
   Yang Guo               : DLPNO-NEVPT2, F12-NEVPT2, CIM, IAO-localization
   Andreas Hansen         : Spin unrestricted coupled pair/coupled cluster methods
   Benjamin Helmich-Paris : MC-RPA, TRAH-SCF, COSX integrals
   Lee Huntington         : MR-EOM, pCC
   Robert Izsak           : Overlap fitted RIJCOSX, COSX-SCS-MP3, EOM
   Marcus Kettner         : VPT2
   Christian Kollmar      : KDIIS, OOCD, Brueckner-CCSD(T), CCSD density, CASPT2, CASPT2-K
   Simone Kossmann        : Meta GGA functionals, TD-DFT gradient, OOMP2, MP2 Hessian
   Martin Krupicka        : Initial AUTO-CI
   Lucas Lang             : DCDCAS
   Marvin Lechner         : AUTO-CI (C++ implementation), FIC-MRCC
   Dagmar Lenk            : GEPOL surface, SMD
   Dimitrios Liakos       : Extrapolation schemes; Compound Job, initial MDCI parallelization
   Dimitrios Manganas     : Further ROCIS development; embedding schemes
   Dimitrios Pantazis     : SARC Basis sets
   Anastasios Papadopoulos: AUTO-CI, single reference methods and gradients
   Taras Petrenko         : DFT Hessian,TD-DFT gradient, ASA, ECA, R-Raman, ABS, FL, XAS/XES, NRVS
   Peter Pinski           : DLPNO-MP2, DLPNO-MP2 Gradient
   Christoph Reimann      : Effective Core Potentials
   Marius Retegan         : Local ZFS, SOC
   Christoph Riplinger    : Optimizer, TS searches, QM/MM, DLPNO-CCSD(T), (RO)-DLPNO pert. Triples
   Tobias Risthaus        : Range-separated hybrids, TD-DFT gradient, RPA, STAB
   Michael Roemelt        : Original ROCIS implementation
   Masaaki Saitow         : Open-shell DLPNO-CCSD energy and density
   Barbara Sandhoefer     : DKH picture change effects
   Avijit Sen             : IP-ROCIS
   Kantharuban Sivalingam : CASSCF convergence, NEVPT2, FIC-MRCI
   Bernardo de Souza      : ESD, SOC TD-DFT
   Georgi Stoychev        : AutoAux, RI-MP2 NMR, DLPNO-MP2 response
   Willem Van den Heuvel  : Paramagnetic NMR
   Boris Wezisla          : Elementary symmetry handling
   Frank Wennmohs         : Technical directorship


 We gratefully acknowledge several colleagues who have allowed us to
 interface, adapt or use parts of their codes:
   Stefan Grimme, W. Hujo, H. Kruse, P. Pracht,  : VdW corrections, initial TS optimization,
                  C. Bannwarth, S. Ehlert          DFT functionals, gCP, sTDA/sTD-DF
   Ed Valeev, F. Pavosevic, A. Kumar             : LibInt (2-el integral package), F12 methods
   Garnet Chan, S. Sharma, J. Yang, R. Olivares  : DMRG
   Ulf Ekstrom                                   : XCFun DFT Library
   Mihaly Kallay                                 : mrcc  (arbitrary order and MRCC methods)
   Jiri Pittner, Ondrej Demel                    : Mk-CCSD
   Frank Weinhold                                : gennbo (NPA and NBO analysis)
   Christopher J. Cramer and Donald G. Truhlar   : smd solvation model
   Lars Goerigk                                  : TD-DFT with DH, B97 family of functionals
   V. Asgeirsson, H. Jonsson                     : NEB implementation
   FAccTs GmbH                                   : IRC, NEB, NEB-TS, DLPNO-Multilevel, CI-OPT
                                                   MM, QMMM, 2- and 3-layer-ONIOM, Crystal-QMMM,
                                                   LR-CPCM, SF, NACMEs, symmetry and pop. for TD-DFT,
                                                   nearIR, NL-DFT gradient (VV10), updates on ESD,
                                                   ML-optimized integration grids
   S Lehtola, MJT Oliveira, MAL Marques          : LibXC Library
   Liviu Ungur et al                             : ANISO software


 Your calculation uses the libint2 library for the computation of 2-el integrals
 For citations please refer to: http://libint.valeyev.net

 Your ORCA version has been built with support for libXC version: 5.1.0
 For citations please refer to: https://tddft.org/programs/libxc/

 This ORCA versions uses:
   CBLAS   interface :  Fast vector & matrix operations
   LAPACKE interface :  Fast linear algebra routines
   SCALAPACK package :  Parallel linear algebra routines
   Shared memory     :  Shared parallel matrices
   BLAS/LAPACK       :  OpenBLAS 0.3.15  USE64BITINT DYNAMIC_ARCH NO_AFFINITY Prescott SINGLE_THREADED
        Core in use  :  Prescott
   Copyright (c) 2011-2014, The OpenBLAS Project


================================================================================

----- Orbital basis set information -----
Your calculation utilizes the basis: TZVP 

The basis set includes element-specific modifications.

Your calculation utilizes the basis: CP(PPP) 

----- AuxJ basis set information -----
Your calculation utilizes the auxiliary basis: def2/J
   F. Weigend, Phys. Chem. Chem. Phys. 8, 1057 (2006).

================================================================================
                                        WARNINGS
                       Please study these warnings very carefully!
================================================================================


WARNING: your system is open-shell and RHF/RKS was chosen
  ===> : WILL SWITCH to UHF/UKS


INFO   : the flag for use of the SHARK integral package has been found!

================================================================================
                                       INPUT FILE
================================================================================
NAME = input_23.inp
|  1> ! nofrozencore ReducedPop printbasis
|  2> ! B3LYP TZVP
|  3> 
|  4> %basis
|  5> newgto V "CP(PPP)" end
|  6> end
|  7> 
|  8> %pal
|  9> nprocs 4
| 10> end
| 11> 
| 12> % sym SymThresh 1e-2 end
| 13> * xyz -2 2 
| 14> V -0.1860854050942795 -0.03772933238170862 0.4541055698259254
| 15> S -0.7845793250747806 -2.3070258094675387 -0.5068580669643606
| 16> S 2.146082908442384 -0.8648988220012406 0.19538600529297454
| 17> S -1.9160439024296596 0.9777292634995417 -1.00418247695564
| 18> S 0.643441379967109 2.2569244351446915 0.3083015647622274
| 19> O -0.6748866075514166 -0.2158215126533684 1.9707331353899118
| 20> C 3.130719022937007 0.24176909715426287 0.7327246927015396
| 21> C 2.1406392994861343 2.5312293573304037 1.811698240065719
| 22> C 2.82311939262539 1.1152885533527437 1.9752747157605175
| 23> H 1.5864143380691234 2.769388768256932 2.7354406855874354
| 24> H 2.7706122420715733 3.380890897988732 1.5165072008091736
| 25> H 2.1111018420659713 0.5457090924001968 2.594360747686107
| 26> H 3.8202130784374964 1.1403069956586533 2.5386504891402533
| 27> H 3.4491803832107446 0.9274195343433951 -0.07265998211848201
| 28> H 4.044277971547016 -0.3069149900129743 1.0132379798610445
| 29> C -1.1875980247849018 -1.8891192084420172 -2.2395223159431574
| 30> C -3.086514937600252 -0.38539057897684736 -1.4098972393871134
| 31> C -2.609929812128646 -1.3768359495647033 -2.4689618586479605
| 32> H -4.024471718279849 0.07682485499391999 -1.741076796585895
| 33> H -3.2880898358786137 -0.9338268666812173 -0.48971138952355575
| 34> H -2.651805082441017 -0.9067421693529047 -3.464256730086293
| 35> H -3.3125175881406586 -2.2260662794507047 -2.482900140256811
| 36> H -1.017142582724642 -2.7763482527885333 -2.8614059081016983
| 37> H -0.48452653576496824 -1.125010574697724 -2.5737167241275594
| 38> * 
| 39> 
| 40> % eprnmr
| 41> gtensor true
| 42> Nuclei = all H {aiso,adip,aorb,fgrad,rho}
| 43> Nuclei = all V {aiso,adip,aorb,fgrad,rho}
| 44> end
| 45> 
| 46>                          ****END OF INPUT****
================================================================================

------------------------------------------------------------------------------
                            SYMMETRY HANDLING SETUP
------------------------------------------------------------------------------

------------------
SYMMETRY DETECTION
------------------
The point group will now be determined using a tolerance of 1.0000e-02.
Splitting atom subsets according to nuclear charge, mass and basis set.
Splitting atom subsets according to distance from the molecule's center.
Identifying relative distance patterns of the atoms.
Splitting atom subsets according to atoms' relative distance patterns.
Bring atoms of each subset into input order.
The molecule is neither linear nor planar.
There is at least one atom subset not centered around the molecule's center.
The molecule does not have a center of inversion.
Analyzing the first atom subset for its symmetry.
The subset consists of a single off-center atom.
No testing is needed for point group C1.
This point group has been found:    C1
Largest non-degenerate subgroup:    C1


Mass-centered symmetry-perfected Cartesians (point group C1):

Atom          Symmetry-perfected Cartesians (x, y, z; au)
  0      -0.352592628489   -0.071651850980    0.859146256086
  1      -1.483582230069   -4.360000709345   -0.956811842105
  2       4.054566782304   -1.634775652696    0.370237133631
  3      -3.621740411503    1.847286795572   -1.896618776702
  4       1.214985816029    4.264615341815    0.583616617286
  5      -1.276293035064   -0.408197298286    3.725157002157
  6       5.915259380268    0.456523635704    1.385660093994
  7       4.044279852197    4.782976521933    3.424624604258
  8       5.333980320083    2.107236180571    3.733739345273
  9       2.996946458536    5.233032584800    5.170244844572
 10       5.234756185464    6.388604140303    2.866794382875
 11       3.988462146981    1.030886987864    4.903642398948
 12       7.218214316130    2.154514184826    4.798365267447
 13       6.517064135421    1.752215185595   -0.136296373873
 14       7.641635600334   -0.580339023083    1.915753383651
 15      -2.245177199370   -3.570271683849   -4.231072754711
 16      -5.833610115662   -0.728636394423   -2.663308566187
 17      -4.932994749021   -2.602196621578   -4.664650654715
 18      -7.606091556601    0.144824190654   -3.289147230446
 19      -6.214531468881   -1.765030780088   -0.924409317635
 20      -5.012127541695   -1.713848119718   -6.545485384230
 21      -6.260693230724   -4.207009369682   -4.690990189734
 22      -1.923063095840   -5.246891595724   -5.406262431070
 23      -0.916564632554   -2.126315629507   -4.862608661668


------------------
SYMMETRY REDUCTION
------------------
ORCA supports only abelian point groups.
It is now checked, if the determined point group is supported:
Point Group ( C1    ) is          ... supported

The point group is C1 - hence turning off symmetry
If this is a round-off problem, please increase the symmetry
        detection tolerance (%method SymThresh)

Storing the symmetry object:
Symmetry file                     ... input_23.sym.tmp
Writing symmetry information      ... done

                       ****************************
                       * Single Point Calculation *
                       ****************************

---------------------------------
CARTESIAN COORDINATES (ANGSTROEM)
---------------------------------
  V     -0.186584   -0.037917    0.454641
  S     -0.785078   -2.307213   -0.506323
  S      2.145584   -0.865086    0.195921
  S     -1.916542    0.977542   -1.003647
  S      0.642943    2.256737    0.308837
  O     -0.675385   -0.216009    1.971268
  C      3.130220    0.241582    0.733260
  C      2.140141    2.531042    1.812233
  C      2.822621    1.115101    1.975810
  H      1.585916    2.769202    2.735976
  H      2.770114    3.380704    1.517042
  H      2.110603    0.545522    2.594896
  H      3.819715    1.140120    2.539186
  H      3.448682    0.927232   -0.072125
  H      4.043779   -0.307102    1.013773
  C     -1.188097   -1.889306   -2.238987
  C     -3.087014   -0.385578   -1.409362
  C     -2.610428   -1.377023   -2.468427
  H     -4.024970    0.076638   -1.740542
  H     -3.288588   -0.934014   -0.489176
  H     -2.652304   -0.906929   -3.463722
  H     -3.313016   -2.226253   -2.482365
  H     -1.017641   -2.776535   -2.860871
  H     -0.485025   -1.125198   -2.573182

----------------------------
CARTESIAN COORDINATES (A.U.)
----------------------------
  NO LB      ZA    FRAG     MASS         X           Y           Z
   0 V    23.0000    0    50.940   -0.352593   -0.071652    0.859146
   1 S    16.0000    0    32.060   -1.483582   -4.360001   -0.956812
   2 S    16.0000    0    32.060    4.054567   -1.634776    0.370237
   3 S    16.0000    0    32.060   -3.621740    1.847287   -1.896619
   4 S    16.0000    0    32.060    1.214986    4.264615    0.583617
   5 O     8.0000    0    15.999   -1.276293   -0.408197    3.725157
   6 C     6.0000    0    12.011    5.915259    0.456524    1.385660
   7 C     6.0000    0    12.011    4.044280    4.782977    3.424625
   8 C     6.0000    0    12.011    5.333980    2.107236    3.733739
   9 H     1.0000    0     1.008    2.996946    5.233033    5.170245
  10 H     1.0000    0     1.008    5.234756    6.388604    2.866794
  11 H     1.0000    0     1.008    3.988462    1.030887    4.903642
  12 H     1.0000    0     1.008    7.218214    2.154514    4.798365
  13 H     1.0000    0     1.008    6.517064    1.752215   -0.136296
  14 H     1.0000    0     1.008    7.641636   -0.580339    1.915753
  15 C     6.0000    0    12.011   -2.245177   -3.570272   -4.231073
  16 C     6.0000    0    12.011   -5.833610   -0.728636   -2.663309
  17 C     6.0000    0    12.011   -4.932995   -2.602197   -4.664651
  18 H     1.0000    0     1.008   -7.606092    0.144824   -3.289147
  19 H     1.0000    0     1.008   -6.214531   -1.765031   -0.924409
  20 H     1.0000    0     1.008   -5.012128   -1.713848   -6.545485
  21 H     1.0000    0     1.008   -6.260693   -4.207009   -4.690990
  22 H     1.0000    0     1.008   -1.923063   -5.246892   -5.406262
  23 H     1.0000    0     1.008   -0.916565   -2.126316   -4.862609

--------------------------------
INTERNAL COORDINATES (ANGSTROEM)
--------------------------------
 V      0   0   0     0.000000000000     0.00000000     0.00000000
 S      1   0   0     2.536011156206     0.00000000     0.00000000
 S      1   2   0     2.488002053917    83.35688047     0.00000000
 S      1   2   3     2.480023505904    88.79416614   137.42481547
 S      1   2   3     2.444342326240   153.83367666    74.63798023
 O      1   2   3     1.603372262709   100.78294674   250.50982173
 C      3   1   2     1.575739517256   108.46826104   181.55198404
 C      5   1   2     2.139403272845   108.41770833   231.12313766
 C      7   3   1     1.549704595311   123.04258071    37.64540771
 H      8   5   1     1.103261219535   105.33700182   276.35892988
 H      8   5   1     1.098147709428   108.16605560   158.46464953
 H      9   7   3     1.102114907607   106.69736724    24.30281796
 H      9   7   3     1.145519097516   103.52506275   137.34838400
 H      7   3   1     1.104616962770   111.55887231   268.48691058
 H      7   3   1     1.101967279173   104.78236508   155.62248465
 C      2   1   3     1.827346546002   101.92896292   257.63662156
 C      4   1   2     1.841929047923   105.65066963    22.41521061
 C     17   4   1     1.526995472309   115.78120790   282.86593940
 H     17   4   1     1.096852738033   107.34060260   160.45331038
 H     17   4   1     1.090026054540   107.69300275    44.40377938
 H     18  17   4     1.101523300511   109.73802444   286.41645211
 H     18  17   4     1.102277647371   108.06282934   170.01888994
 H     16   2   1     1.096799725135   108.56293477   154.36717248
 H     16   2   1     1.090805860498   107.97172175    38.67044449

---------------------------
INTERNAL COORDINATES (A.U.)
---------------------------
 V      0   0   0     0.000000000000     0.00000000     0.00000000
 S      1   0   0     4.792366557798     0.00000000     0.00000000
 S      1   2   0     4.701642502536    83.35688047     0.00000000
 S      1   2   3     4.686565231846    88.79416614   137.42481547
 S      1   2   3     4.619137574146   153.83367666    74.63798023
 O      1   2   3     3.029934467246   100.78294674   250.50982173
 C      3   1   2     2.977716146010   108.46826104   181.55198404
 C      5   1   2     4.042886275692   108.41770833   231.12313766
 C      7   3   1     2.928517273618   123.04258071    37.64540771
 H      8   5   1     2.084861559096   105.33700182   276.35892988
 H      8   5   1     2.075198425411   108.16605560   158.46464953
 H      9   7   3     2.082695343489   106.69736724    24.30281796
 H      9   7   3     2.164717375481   103.52506275   137.34838400
 H      7   3   1     2.087423542520   111.55887231   268.48691058
 H      7   3   1     2.082416366180   104.78236508   155.62248465
 C      2   1   3     3.453184523711   101.92896292   257.63662156
 C      4   1   2     3.480741458688   105.65066963    22.41521061
 C     17   4   1     2.885603250401   115.78120790   282.86593940
 H     17   4   1     2.072751284124   107.34060260   160.45331038
 H     17   4   1     2.059850721919   107.69300275    44.40377938
 H     18  17   4     2.081577368099   109.73802444   286.41645211
 H     18  17   4     2.083002877074   108.06282934   170.01888994
 H     16   2   1     2.072651104265   108.56293477   154.36717248
 H     16   2   1     2.061324341618   107.97172175    38.67044449

---------------------
BASIS SET INFORMATION
---------------------
There are 5 groups of distinct atoms

 Group   1 Type V   : 17s11p5d1f contracted to 17s7p3d1f pattern {11111111111111111/3311111/311/1}
 Group   2 Type S   : 14s9p1d contracted to 5s4p1d pattern {73211/6111/1}
 Group   3 Type O   : 11s6p1d contracted to 5s3p1d pattern {62111/411/1}
 Group   4 Type C   : 11s6p1d contracted to 5s3p1d pattern {62111/411/1}
 Group   5 Type H   : 5s1p contracted to 3s1p pattern {311/1}

Atom   0V    basis set group =>   1
Atom   1S    basis set group =>   2
Atom   2S    basis set group =>   2
Atom   3S    basis set group =>   2
Atom   4S    basis set group =>   2
Atom   5O    basis set group =>   3
Atom   6C    basis set group =>   4
Atom   7C    basis set group =>   4
Atom   8C    basis set group =>   4
Atom   9H    basis set group =>   5
Atom  10H    basis set group =>   5
Atom  11H    basis set group =>   5
Atom  12H    basis set group =>   5
Atom  13H    basis set group =>   5
Atom  14H    basis set group =>   5
Atom  15C    basis set group =>   4
Atom  16C    basis set group =>   4
Atom  17C    basis set group =>   4
Atom  18H    basis set group =>   5
Atom  19H    basis set group =>   5
Atom  20H    basis set group =>   5
Atom  21H    basis set group =>   5
Atom  22H    basis set group =>   5
Atom  23H    basis set group =>   5

-------------------------
BASIS SET IN INPUT FORMAT
-------------------------

 # Basis set for element : H 
 NewGTO H 
 S 3 
   1      34.0613410000      0.0254393168
   2       5.1235746000      0.1900859340
   3       1.1646626000      0.8524411390
 S 1 
   1       0.3272304100      1.0000000000
 S 1 
   1       0.1030724100      1.0000000000
 P 1 
   1       0.8000000000      1.0000000000
  end;

 # Basis set for element : C 
 NewGTO C 
 S 6 
   1   13575.3496820000      0.0006064601
   2    2035.2333680000      0.0046978985
   3     463.2256235900      0.0243324735
   4     131.2001959800      0.0973999560
   5      42.8530158900      0.3019558443
   6      15.5841857700      0.6623361013
 S 2 
   1       6.2067138500      0.6559530795
   2       2.5764896500      0.3758563390
 S 1 
   1       0.5769633900      1.0000000000
 S 1 
   1       0.2297283100      1.0000000000
 S 1 
   1       0.0951644400      1.0000000000
 P 4 
   1      34.6972322400      0.0113272290
   2       7.9582622800      0.0761696612
   3       2.3780826900      0.3019225154
   4       0.8143320800      0.7278502776
 P 1 
   1       0.2888754700      1.0000000000
 P 1 
   1       0.1005682400      1.0000000000
 D 1 
   1       0.8000000000      1.0000000000
  end;

 # Basis set for element : O 
 NewGTO O 
 S 6 
   1   27032.3826310000      0.0005722654
   2    4052.3871392000      0.0044353333
   3     922.3272271000      0.0230201034
   4     261.2407098900      0.0928224938
   5      85.3546413500      0.2937849971
   6      31.0350352400      0.6740160462
 S 2 
   1      12.2608607300      0.6383993750
   2       4.9987076000      0.3953458663
 S 1 
   1       1.1703108200      1.0000000000
 S 1 
   1       0.4647474100      1.0000000000
 S 1 
   1       0.1850453600      1.0000000000
 P 4 
   1      63.2749548000      0.0120183316
   2      14.6270493800      0.0830054304
   3       4.4501223500      0.3199174388
   4       1.5275799600      0.7071554258
 P 1 
   1       0.5293511800      1.0000000000
 P 1 
   1       0.1747842100      1.0000000000
 D 1 
   1       1.2000000000      1.0000000000
  end;

 # Basis set for element : S 
 NewGTO S 
 S 7 
   1   60700.9281040000      0.0005238013
   2    9102.6106854000      0.0040506304
   3    2071.4166009000      0.0208270003
   4     586.0247682100      0.0814968475
   5     190.5539502100      0.2374911358
   6      67.6303842600      0.4472617145
   7      25.1273069100      0.3489191913
 S 3 
   1     112.5746301000      0.1004556993
   2      34.7955542200      0.4339117282
   3       6.5115556200     -1.2084330582
 S 2 
   1       3.2399032300      0.6749812922
   2       1.5477160900      0.3470879597
 S 1 
   1       0.4054103000      1.0000000000
 S 1 
   1       0.1455065100      1.0000000000
 P 6 
   1     564.3671602700      0.0025564845
   2     133.4262437900      0.0202874255
   3      42.4682711900      0.0927670112
   4      15.6165275800      0.2650208365
   5       6.1093988500      0.4486298663
   6       2.4404160200      0.3596369916
 P 1 
   1       0.8388220100      1.0000000000
 P 1 
   1       0.3128874700      1.0000000000
 P 1 
   1       0.1077010900      1.0000000000
 D 1 
   1       0.5500000000      1.0000000000
  end;

 # Basis set for element : V 
 NewGTO V 
 S 1 
   1  4239814.9912500000      1.0000000000
 S 1 
   1  1695925.9965000001      1.0000000000
 S 1 
   1  678370.3986000001      1.0000000000
 S 1 
   1  271348.1594400000      1.0000000000
 S 1 
   1   40672.0050780000      1.0000000000
 S 1 
   1    9257.0761385000      1.0000000000
 S 1 
   1    2622.7328773000      1.0000000000
 S 1 
   1     858.5948018500      1.0000000000
 S 1 
   1     314.1941865000      1.0000000000
 S 1 
   1     124.4786212700      1.0000000000
 S 1 
   1      50.4693993090      1.0000000000
 S 1 
   1      12.5138469110      1.0000000000
 S 1 
   1       5.3447758082      1.0000000000
 S 1 
   1       1.5755631295      1.0000000000
 S 1 
   1       0.6306903307      1.0000000000
 S 1 
   1       0.0879544416      1.0000000000
 S 1 
   1       0.0342969197      1.0000000000
 P 3 
   1    1450.0319327000     -0.0222847647
   2     343.7504988400     -0.1817959329
   3     110.8252170800     -0.8607412073
 P 3 
   1      41.8224645460     -0.2522537814
   2      17.0880737100     -0.4620379520
   3       7.2613218939     -0.3990010670
 P 1 
   1       2.9458145262      1.0000000000
 P 1 
   1       1.1650209680      1.0000000000
 P 1 
   1       0.4339937839      1.0000000000
 D 3 
   1      27.3603358640      0.0575501019
   2       7.4542765527      0.3023798347
   3       2.4632270217      0.7724212088
 D 1 
   1       0.8249954244      1.0000000000
 D 1 
   1       0.2526297057      1.0000000000
 P 1 
   1       0.1112480000      1.0000000000
 P 1 
   1       0.0363780000      1.0000000000
 F 1 
   1       1.8000000000      1.0000000000
  end;

---------------------------------
AUXILIARY/J BASIS SET INFORMATION
---------------------------------
There are 5 groups of distinct atoms

 Group   1 Type V   : 19s5p5d3f3g contracted to 8s5p5d2f3g pattern {121111111/11111/11111/21/111}
 Group   2 Type S   : 14s5p5d2f1g contracted to 8s4p3d1f1g pattern {71111111/2111/311/2/1}
 Group   3 Type O   : 12s5p4d2f1g contracted to 6s4p3d1f1g pattern {711111/2111/211/2/1}
 Group   4 Type C   : 12s5p4d2f1g contracted to 6s4p3d1f1g pattern {711111/2111/211/2/1}
 Group   5 Type H   : 5s2p1d contracted to 3s1p1d pattern {311/2/1}

Atom   0V    basis set group =>   1
Atom   1S    basis set group =>   2
Atom   2S    basis set group =>   2
Atom   3S    basis set group =>   2
Atom   4S    basis set group =>   2
Atom   5O    basis set group =>   3
Atom   6C    basis set group =>   4
Atom   7C    basis set group =>   4
Atom   8C    basis set group =>   4
Atom   9H    basis set group =>   5
Atom  10H    basis set group =>   5
Atom  11H    basis set group =>   5
Atom  12H    basis set group =>   5
Atom  13H    basis set group =>   5
Atom  14H    basis set group =>   5
Atom  15C    basis set group =>   4
Atom  16C    basis set group =>   4
Atom  17C    basis set group =>   4
Atom  18H    basis set group =>   5
Atom  19H    basis set group =>   5
Atom  20H    basis set group =>   5
Atom  21H    basis set group =>   5
Atom  22H    basis set group =>   5
Atom  23H    basis set group =>   5

-------------------------------------
AUXILIARY/J BASIS SET IN INPUT FORMAT
-------------------------------------

 # Auxiliary/J basis set for element : H 
 NewAuxJGTO H 
 S 3 
   1      15.6752927000      0.1007184237
   2       3.6063578000      0.3404257499
   3       1.2080016000      0.6491996172
 S 1 
   1       0.4726794000      1.0000000000
 S 1 
   1       0.2018100000      1.0000000000
 P 2 
   1       2.0281365000      0.5596620919
   2       0.5358730000      0.5596620919
 D 1 
   1       2.2165124000      1.0000000000
  end;

 # Auxiliary/J basis set for element : C 
 NewAuxJGTO C 
 S 7 
   1    1861.0916331000      0.0134602335
   2     642.9939764000      0.0299160374
   3     235.1105725000      0.1008649584
   4      90.7028894000      0.2370970548
   5      36.7794552000      0.3924037254
   6      15.6046273000      0.3195862154
   7       6.8907294000      0.0530104441
 S 1 
   1       3.1478850000     -1.0000000000
 S 1 
   1       1.4777287000      1.0000000000
 S 1 
   1       0.7076466000      1.0000000000
 S 1 
   1       0.3430122000      1.0000000000
 S 1 
   1       0.1669453000      1.0000000000
 P 2 
   1      13.5472892000     -0.6769313712
   2       5.4669419000     -0.3779500978
 P 1 
   1       2.1751721000      1.0000000000
 P 1 
   1       0.8582194000      1.0000000000
 P 1 
   1       0.3376720000      1.0000000000
 D 2 
   1       5.9287253000     -0.3533329857
   2       1.9809209000     -0.7456525731
 D 1 
   1       0.8055417000     -1.0000000000
 D 1 
   1       0.3531244000     -1.0000000000
 F 2 
   1       1.6755626000      0.6311076882
   2       0.5997536000      0.4968166032
 G 1 
   1       1.0024600000     -1.0000000000
  end;

 # Auxiliary/J basis set for element : O 
 NewAuxJGTO O 
 S 7 
   1    2876.8216605000      0.0168151159
   2    1004.7443032000      0.0340137548
   3     369.7579954000      0.1194951309
   4     142.9442404000      0.2664627624
   5      57.8366425000      0.4202764046
   6      24.3864983000      0.2765077335
   7      10.6622662000      0.0057008815
 S 1 
   1       4.8070437000     -1.0000000000
 S 1 
   1       2.2210770000      1.0000000000
 S 1 
   1       1.0447795000      1.0000000000
 S 1 
   1       0.4968425000      1.0000000000
 S 1 
   1       0.2371384000      1.0000000000
 P 2 
   1      64.2613382000     -0.2731534179
   2      16.3006076000     -0.8168011598
 P 1 
   1       4.3550542000      1.0000000000
 P 1 
   1       1.2019554000      1.0000000000
 P 1 
   1       0.3354196000      1.0000000000
 D 2 
   1       9.2146611000     -0.4661230638
   2       2.8435251000     -0.6600908911
 D 1 
   1       0.9955759000     -1.0000000000
 D 1 
   1       0.3649441000     -1.0000000000
 F 2 
   1       2.6420115000      0.5931563945
   2       0.7345613000      0.5931563945
 G 1 
   1       1.3931000000     -1.0000000000
  end;

 # Auxiliary/J basis set for element : S 
 NewAuxJGTO S 
 S 7 
   1    7399.0303145000      0.0295137551
   2    2710.1675859000      0.0559686311
   3    1034.3279062000      0.1764696370
   4     410.4645411000      0.3577969368
   5     168.9762502000      0.4299293578
   6      71.9687889000      0.1259148089
   7      31.6172683000     -0.0646025788
 S 1 
   1      14.2796836000      1.0000000000
 S 1 
   1       6.6060948000      1.0000000000
 S 1 
   1       3.1181477000      1.0000000000
 S 1 
   1       1.4954039000     -1.0000000000
 S 1 
   1       0.7254779000      1.0000000000
 S 1 
   1       0.3544216000      1.0000000000
 S 1 
   1       0.1735525000      1.0000000000
 P 2 
   1      12.6998799000      1.4059102813
   2       4.4295784000     -1.2124994202
 P 1 
   1       1.5232889000      1.0000000000
 P 1 
   1       0.5194667000     -1.0000000000
 P 1 
   1       0.1766547000     -1.0000000000
 D 3 
   1      16.8546461000      1.0295742104
   2       5.0810461000     -0.7461553923
   3       1.5102323000      0.8357028005
 D 1 
   1       0.4451331000      1.0000000000
 D 1 
   1       0.1308362000      1.0000000000
 F 2 
   1       1.0809860000      0.5572698934
   2       0.4161474000      0.5572698934
 G 1 
   1       0.6707100000     -1.0000000000
  end;

 # Auxiliary/J basis set for element : V 
 NewAuxJGTO V 
 S 12 
   1   11942.0842430000      0.0459866720
   2    2430.7110193000      0.1744615821
   3     841.0764301000      0.2900402792
   4     494.7508273000      0.1411212903
   5     291.0298903000      0.2660697186
   6     171.1940483000      0.0446365706
   7      59.2366916000     -0.0408204801
   8      34.8451117000      0.1394665381
   9      20.4971240000      0.2164746715
  10      12.0571314000      0.0864266611
  11       7.0924300000     -0.0568501658
  12       4.1720176000     -0.0126212852
 S 1 
   1       2.4541279000      1.0000000000
 S 1 
   1       1.4436046000      1.0000000000
 S 1 
   1       0.8491792000      1.0000000000
 S 1 
   1       0.2938336000      1.0000000000
 S 1 
   1       0.1728433000      1.0000000000
 S 1 
   1       0.1016725000      1.0000000000
 S 1 
   1       0.0598074000      1.0000000000
 P 1 
   1      16.7130979000     -1.0000000000
 P 1 
   1       4.7454037000     -1.0000000000
 P 1 
   1       1.3889998000      1.0000000000
 P 1 
   1       0.4142440000     -1.0000000000
 P 1 
   1       0.1243234000      1.0000000000
 D 1 
   1       7.7143225000      1.0000000000
 D 1 
   1       3.1170731000      1.0000000000
 D 1 
   1       1.2767950000     -1.0000000000
 D 1 
   1       0.5273386000      1.0000000000
 D 1 
   1       0.2184050000      1.0000000000
 F 2 
   1       3.1309344000     -1.0825667766
   2       1.0419780000      0.1809223232
 F 1 
   1       0.3559044000      1.0000000000
 G 1 
   1       8.7130110000      1.0000000000
 G 1 
   1       2.7493872000      1.0000000000
 G 1 
   1       0.8775089000      1.0000000000
  end;



           ************************************************************
           *        Program running with 4 parallel MPI-processes     *
           *              working on a common directory               *
           ************************************************************
------------------------------------------------------------------------------
                           ORCA GTO INTEGRAL CALCULATION
                           -- RI-GTO INTEGRALS CHOSEN --
------------------------------------------------------------------------------
------------------------------------------------------------------------------
                   ___                                                        
                  /   \      - P O W E R E D   B Y -                         
                 /     \                                                     
                 |  |  |   _    _      __       _____    __    __             
                 |  |  |  | |  | |    /  \     |  _  \  |  |  /  |          
                  \  \/   | |  | |   /    \    | | | |  |  | /  /          
                 / \  \   | |__| |  /  /\  \   | |_| |  |  |/  /          
                |  |  |   |  __  | /  /__\  \  |    /   |      \           
                |  |  |   | |  | | |   __   |  |    \   |  |\   \          
                \     /   | |  | | |  |  |  |  | |\  \  |  | \   \       
                 \___/    |_|  |_| |__|  |__|  |_| \__\ |__|  \__/        
                                                                              
                      - O R C A' S   B I G   F R I E N D -                    
                                      &                                       
                       - I N T E G R A L  F E E D E R -                       
                                                                              
 v1 FN, 2020, v2 2021                                                         
------------------------------------------------------------------------------


Reading SHARK input file input_23.SHARKINP.tmp ... ok
----------------------
SHARK INTEGRAL PACKAGE
----------------------

Number of atoms                             ...     24
Number of basis functions                   ...    353
Number of shells                            ...    179
Maximum angular momentum                    ...      3
Integral batch strategy                     ... SHARK/LIBINT Hybrid
RI-J (if used) integral strategy            ... SPLIT-RIJ (Revised 2003 algorithm where possible)
Printlevel                                  ...      1
Contraction scheme used                     ... SEGMENTED contraction
Coulomb Range Separation                    ... NOT USED
Exchange Range Separation                   ... NOT USED
Finite Nucleus Model                        ... NOT USED
Auxiliary Coulomb fitting basis             ... AVAILABLE
   # of basis functions in Aux-J            ...    768
   # of shells in Aux-J                     ...    256
   Maximum angular momentum in Aux-J        ...      4
Auxiliary J/K fitting basis                 ... NOT available
Auxiliary Correlation fitting basis         ... NOT available
Auxiliary 'external' fitting basis          ... NOT available
Integral threshold                          ...     1.000000e-10
Primitive cut-off                           ...     1.000000e-11
Primitive pair pre-selection threshold      ...     1.000000e-11

Calculating pre-screening integrals         ... done (  0.0 sec) Dimension = 179
Organizing shell pair data                  ... done (  0.1 sec)
Shell pair information
Total number of shell pairs                 ...     16110
Shell pairs after pre-screening             ...     11576
Total number of primitive shell pairs       ...     54315
Primitive shell pairs kept                  ...     25752
          la=0 lb=0:   3963 shell pairs
          la=1 lb=0:   4439 shell pairs
          la=1 lb=1:   1267 shell pairs
          la=2 lb=0:   1074 shell pairs
          la=2 lb=1:    608 shell pairs
          la=2 lb=2:     86 shell pairs
          la=3 lb=0:     77 shell pairs
          la=3 lb=1:     47 shell pairs
          la=3 lb=2:     14 shell pairs
          la=3 lb=3:      1 shell pairs

Calculating one electron integrals          ... done (  0.0 sec)
Calculating RI/J V-Matrix + Cholesky decomp.... done (  0.0 sec)
Calculating Nuclear repulsion               ... done (  0.0 sec) ENN=   1522.050136728926 Eh

SHARK setup successfully completed in   0.3 seconds

Maximum memory used throughout the entire GTOINT-calculation: 25.5 MB


           ************************************************************
           *        Program running with 4 parallel MPI-processes     *
           *              working on a common directory               *
           ************************************************************
-------------------------------------------------------------------------------
                                 ORCA SCF
-------------------------------------------------------------------------------

------------
SCF SETTINGS
------------
Hamiltonian:
 Density Functional     Method          .... DFT(GTOs)
 Exchange Functional    Exchange        .... B88
   X-Alpha parameter    XAlpha          ....  0.666667
   Becke's b parameter  XBeta           ....  0.004200
 Correlation Functional Correlation     .... LYP
 LDA part of GGA corr.  LDAOpt          .... VWN-5
 Gradients option       PostSCFGGA      .... off
 Hybrid DFT is turned on
   Fraction HF Exchange ScalHFX         ....  0.200000
   Scaling of DF-GGA-X  ScalDFX         ....  0.720000
   Scaling of DF-GGA-C  ScalDFC         ....  0.810000
   Scaling of DF-LDA-C  ScalLDAC        ....  1.000000
   Perturbative correction              ....  0.000000
   Density functional embedding theory  .... OFF
   NL short-range parameter             ....  4.800000
 RI-approximation to the Coulomb term is turned on
   Number of AuxJ basis functions       .... 768
   RIJ-COSX (HFX calculated with COS-X)).... on


General Settings:
 Integral files         IntName         .... input_23
 Hartree-Fock type      HFTyp           .... UHF
 Total Charge           Charge          ....   -2
 Multiplicity           Mult            ....    2
 Number of Electrons    NEL             ....  145
 Basis Dimension        Dim             ....  353
 Nuclear Repulsion      ENuc            ....   1522.0501367289 Eh

Convergence Acceleration:
 DIIS                   CNVDIIS         .... on
   Start iteration      DIISMaxIt       ....    12
   Startup error        DIISStart       ....  0.200000
   # of expansion vecs  DIISMaxEq       ....     5
   Bias factor          DIISBfac        ....   1.050
   Max. coefficient     DIISMaxC        ....  10.000
 Trust-Rad. Augm. Hess. CNVTRAH         .... auto
   Auto Start mean grad. ratio tolernc. ....  1.125000
   Auto Start start iteration           ....    20
   Auto Start num. interpolation iter.  ....    10
   Max. Number of Micro iterations      ....    16
   Max. Number of Macro iterations      .... Maxiter - #DIIS iter
   Number of Davidson start vectors     ....     2
   Converg. threshold I  (grad. norm)   ....   5.000e-05
   Converg. threshold II (energy diff.) ....   1.000e-06
   Grad. Scal. Fac. for Micro threshold ....   0.100
   Minimum threshold for Micro iter.    ....   0.010
   NR start threshold (gradient norm)   ....   0.001
   Initial trust radius                 ....   0.400
   Minimum AH scaling param. (alpha)    ....   1.000
   Maximum AH scaling param. (alpha)    .... 1000.000
   Orbital update algorithm             .... Taylor
   White noise on init. David. guess    .... on
   Maximum white noise                  ....   0.010
   Quad. conv. algorithm                .... NR
 SOSCF                  CNVSOSCF        .... off
 Level Shifting         CNVShift        .... on
   Level shift para.    LevelShift      ....    0.2500
   Turn off err/grad.   ShiftErr        ....    0.0010
 Zerner damping         CNVZerner       .... off
 Static damping         CNVDamp         .... on
   Fraction old density DampFac         ....    0.7000
   Max. Damping (<1)    DampMax         ....    0.9800
   Min. Damping (>=0)   DampMin         ....    0.0000
   Turn off err/grad.   DampErr         ....    0.1000
 Fernandez-Rico         CNVRico         .... off

SCF Procedure:
 Maximum # iterations   MaxIter         ....   125
 SCF integral mode      SCFMode         .... Direct
   Integral package                     .... SHARK and LIBINT hybrid scheme
 Reset frequency        DirectResetFreq ....    20
 Integral Threshold     Thresh          ....  1.000e-10 Eh
 Primitive CutOff       TCut            ....  1.000e-11 Eh

Convergence Tolerance:
 Convergence Check Mode ConvCheckMode   .... Total+1el-Energy
 Convergence forced     ConvForced      .... 0
 Energy Change          TolE            ....  1.000e-06 Eh
 1-El. energy change                    ....  1.000e-03 Eh
 DIIS Error             TolErr          ....  1.000e-06


Diagonalization of the overlap matrix:
Smallest eigenvalue                        ... 2.836e-04
Time for diagonalization                   ...    0.061 sec
Threshold for overlap eigenvalues          ... 1.000e-08
Number of eigenvalues below threshold      ... 0
Time for construction of square roots      ...    0.040 sec
Total time needed                          ...    0.104 sec

Time for model grid setup =    0.263 sec

------------------------------
INITIAL GUESS: MODEL POTENTIAL
------------------------------
Loading Hartree-Fock densities                     ... done
Calculating cut-offs                               ... done
Initializing the effective Hamiltonian             ... done
Setting up the integral package (SHARK)            ... done
Starting the Coulomb interaction                   ... done (   0.2 sec)
Reading the grid                                   ... done
Mapping shells                                     ... done
Starting the XC term evaluation                    ... done (   0.1 sec)
  promolecular density results
     # of electrons  =    142.994700786
     EX              =   -186.876354305
     EC              =     -5.515886622
     EX+EC           =   -192.392240926
Transforming the Hamiltonian                       ... done (   0.0 sec)
Diagonalizing the Hamiltonian                      ... done (   0.0 sec)
Back transforming the eigenvectors                 ... done (   0.0 sec)
Now organizing SCF variables                       ... done
                      ------------------
                      INITIAL GUESS DONE (   0.6 sec)
                      ------------------
-------------------
DFT GRID GENERATION
-------------------

General Integration Accuracy     IntAcc      ... 4.388
Radial Grid Type                 RadialGrid  ... OptM3 with GC (2021)
Angular Grid (max. ang.)         AngularGrid ... 4 (Lebedev-302)
Angular grid pruning method      GridPruning ... 4 (adaptive)
Weight generation scheme         WeightScheme... Becke
Basis function cutoff            BFCut       ... 1.0000e-10
Integration weight cutoff        WCut        ... 1.0000e-14
Angular grids for H and He will be reduced by one unit
Partially contracted basis set               ... off
Rotationally invariant grid construction     ... off

Total number of grid points                  ...   131100
Total number of batches                      ...     2060
Average number of points per batch           ...       63
Average number of grid points per atom       ...     5462
Time for grid setup =    1.053 sec

--------------------
COSX GRID GENERATION
--------------------

GRIDX 1
-------
General Integration Accuracy     IntAcc      ... 3.816
Radial Grid Type                 RadialGrid  ... OptM3 with GC (2021)
Angular Grid (max. ang.)         AngularGrid ... 1 (Lebedev-50)
Angular grid pruning method      GridPruning ... 4 (adaptive)
Weight generation scheme         WeightScheme... Becke
Basis function cutoff            BFCut       ... 1.0000e-10
Integration weight cutoff        WCut        ... 1.0000e-14
Angular grids for H and He will be reduced by one unit
Partially contracted basis set               ... on
Rotationally invariant grid construction     ... off

Total number of grid points                  ...    16458
Total number of batches                      ...      269
Average number of points per batch           ...       61
Average number of grid points per atom       ...      686
UseSFitting                                  ... on

GRIDX 2
-------
General Integration Accuracy     IntAcc      ... 4.020
Radial Grid Type                 RadialGrid  ... OptM3 with GC (2021)
Angular Grid (max. ang.)         AngularGrid ... 2 (Lebedev-110)
Angular grid pruning method      GridPruning ... 4 (adaptive)
Weight generation scheme         WeightScheme... Becke
Basis function cutoff            BFCut       ... 1.0000e-10
Integration weight cutoff        WCut        ... 1.0000e-14
Angular grids for H and He will be reduced by one unit
Partially contracted basis set               ... on
Rotationally invariant grid construction     ... off

Total number of grid points                  ...    34437
Total number of batches                      ...      551
Average number of points per batch           ...       62
Average number of grid points per atom       ...     1435
UseSFitting                                  ... on

GRIDX 3
-------
General Integration Accuracy     IntAcc      ... 4.338
Radial Grid Type                 RadialGrid  ... OptM3 with GC (2021)
Angular Grid (max. ang.)         AngularGrid ... 3 (Lebedev-194)
Angular grid pruning method      GridPruning ... 4 (adaptive)
Weight generation scheme         WeightScheme... Becke
Basis function cutoff            BFCut       ... 1.0000e-10
Integration weight cutoff        WCut        ... 1.0000e-14
Angular grids for H and He will be reduced by one unit
Partially contracted basis set               ... on
Rotationally invariant grid construction     ... off

Total number of grid points                  ...    77473
Total number of batches                      ...     1225
Average number of points per batch           ...       63
Average number of grid points per atom       ...     3228
UseSFitting                                  ... on

Time for X-Grid setup             =    1.036 sec

--------------
SCF ITERATIONS
--------------
ITER       Energy         Delta-E        Max-DP      RMS-DP      [F,P]     Damp
               ***  Starting incremental Fock matrix formation  ***
  0  -2847.0158729353   0.000000000000 0.06007877  0.00107866  0.2305556 0.7000
  1  -2847.2477690985  -0.231896163198 0.08030229  0.00103759  0.1558857 0.7000
                               ***Turning on DIIS***
  2  -2847.3934581663  -0.145689067871 0.05692921  0.00062647  0.1090147 0.7000
  3  -2847.4679566402  -0.074498473912 0.09383399  0.00094548  0.0771366 0.0000
  4  -2847.6459056707  -0.177949030474 0.04341251  0.00047162  0.0108162 0.0000
  5  -2847.6514975263  -0.005591855633 0.01478900  0.00014559  0.0092818 0.0000
  6  -2847.6527980804  -0.001300554066 0.00807730  0.00007528  0.0035403 0.0000
  7  -2847.6531302782  -0.000332197785 0.00477335  0.00004393  0.0016250 0.0000
  8  -2847.6532758187  -0.000145540474 0.00402992  0.00003555  0.0014600 0.0000
  9  -2847.6533759658  -0.000100147166 0.00702836  0.00006585  0.0007948 0.0000
               *** Restarting incremental Fock matrix formation ***
                                   *** Resetting DIIS ***
 10  -2847.6535008336  -0.000124867730 0.00115390  0.00002064  0.0007101 0.0000
 11  -2847.6535108684  -0.000010034849 0.00033337  0.00000601  0.0014572 0.0000
 12  -2847.6535237358  -0.000012867335 0.00067013  0.00001175  0.0003679 0.0000
 13  -2847.6535274051  -0.000003669395 0.00033953  0.00000513  0.0006534 0.0000
 14  -2847.6535342169  -0.000006811768 0.00068739  0.00001034  0.0003031 0.0000
 15  -2847.6535386693  -0.000004452405 0.00020178  0.00000316  0.0000909 0.0000
 16  -2847.6535389402  -0.000000270858 0.00012258  0.00000221  0.0000779 0.0000
                 **** Energy Check signals convergence ****

               *****************************************************
               *                     SUCCESS                       *
               *           SCF CONVERGED AFTER  17 CYCLES          *
               *****************************************************

Old exchange energy                            =    -37.606697789 Eh
New exchange energy                            =    -37.606643956 Eh
Exchange energy change after final integration =      0.000053833 Eh
Total energy after final integration           =  -2847.653485274 Eh
Final COS-X integration done in                =    11.048 sec

----------------
TOTAL SCF ENERGY
----------------

Total Energy       :        -2847.65348527 Eh          -77488.59078 eV

Components:
Nuclear Repulsion  :         1522.05013673 Eh           41417.08982 eV
Electronic Energy  :        -4369.70362200 Eh         -118905.68060 eV
One Electron Energy:        -6994.77053511 Eh         -190337.38283 eV
Two Electron Energy:         2625.06691311 Eh           71431.70222 eV
Max COSX asymmetry :            0.00000138 Eh               0.00004 eV

Virial components:
Potential Energy   :        -5688.78733841 Eh         -154799.77335 eV
Kinetic Energy     :         2841.13385313 Eh           77311.18257 eV
Virial Ratio       :            2.00229473


DFT components:
N(Alpha)           :       72.999895962207 electrons
N(Beta)            :       71.999898572453 electrons
N(Total)           :      144.999794534660 electrons
E(X)               :     -149.547320614177 Eh       
E(C)               :       -6.525852106417 Eh       
E(XC)              :     -156.073172720594 Eh       
DFET-embed. en.    :        0.000000000000 Eh       

---------------
SCF CONVERGENCE
---------------

  Last Energy change         ...   -1.6700e-07  Tolerance :   1.0000e-06
  Last MAX-Density change    ...    0.0000e+00  Tolerance :   1.0000e-05
  Last RMS-Density change    ...    0.0000e+00  Tolerance :   1.0000e-06
  Last DIIS Error            ...    1.9563e-05  Tolerance :   1.0000e-06

             **** THE GBW FILE WAS UPDATED (input_23.gbw) ****
             **** DENSITY input_23.scfp WAS UPDATED ****
             **** ENERGY FILE WAS UPDATED (input_23.en.tmp) ****
----------------------
UHF SPIN CONTAMINATION
----------------------

Warning: in a DFT calculation there is little theoretical justification to 
         calculate <S**2> as in Hartree-Fock theory. We will do it anyways
         but you should keep in mind that the values have only limited relevance

Expectation value of <S**2>     :     0.766000
Ideal value S*(S+1) for S=0.5   :     0.750000
Deviation                       :     0.016000

             **** THE GBW FILE WAS UPDATED (input_23.gbw) ****
             **** DENSITY input_23.scfp WAS UPDATED ****
----------------
ORBITAL ENERGIES
----------------
                 SPIN UP ORBITALS
  NO   OCC          E(Eh)            E(eV) 
   0   1.0000    -196.606742     -5349.9414 
   1   1.0000     -88.570368     -2410.1222 
   2   1.0000     -88.561887     -2409.8915 
   3   1.0000     -88.554647     -2409.6944 
   4   1.0000     -88.545967     -2409.4582 
   5   1.0000     -21.982015      -598.1610 
   6   1.0000     -18.824499      -512.2407 
   7   1.0000     -18.489800      -503.1330 
   8   1.0000     -18.482647      -502.9384 
   9   1.0000     -18.482547      -502.9357 
  10   1.0000      -9.961991      -271.0795 
  11   1.0000      -9.938527      -270.4411 
  12   1.0000      -9.933201      -270.2961 
  13   1.0000      -9.931685      -270.2549 
  14   1.0000      -9.930403      -270.2200 
  15   1.0000      -9.923205      -270.0241 
  16   1.0000      -7.621506      -207.3917 
  17   1.0000      -7.616209      -207.2476 
  18   1.0000      -7.609395      -207.0622 
  19   1.0000      -7.607937      -207.0225 
  20   1.0000      -5.587959      -152.0561 
  21   1.0000      -5.581371      -151.8768 
  22   1.0000      -5.580297      -151.8476 
  23   1.0000      -5.578241      -151.7917 
  24   1.0000      -5.575234      -151.7098 
  25   1.0000      -5.574579      -151.6920 
  26   1.0000      -5.573423      -151.6605 
  27   1.0000      -5.571999      -151.6218 
  28   1.0000      -5.568623      -151.5299 
  29   1.0000      -5.566600      -151.4749 
  30   1.0000      -5.566440      -151.4705 
  31   1.0000      -5.564901      -151.4286 
  32   1.0000      -2.374611       -64.6165 
  33   1.0000      -1.417252       -38.5654 
  34   1.0000      -1.402712       -38.1697 
  35   1.0000      -1.402275       -38.1578 
  36   1.0000      -0.587145       -15.9770 
  37   1.0000      -0.562927       -15.3180 
  38   1.0000      -0.552750       -15.0411 
  39   1.0000      -0.484844       -13.1933 
  40   1.0000      -0.467811       -12.7298 
  41   1.0000      -0.404066       -10.9952 
  42   1.0000      -0.391615       -10.6564 
  43   1.0000      -0.341196        -9.2844 
  44   1.0000      -0.331799        -9.0287 
  45   1.0000      -0.298035        -8.1099 
  46   1.0000      -0.283735        -7.7208 
  47   1.0000      -0.214085        -5.8255 
  48   1.0000      -0.205532        -5.5928 
  49   1.0000      -0.203811        -5.5460 
  50   1.0000      -0.195318        -5.3149 
  51   1.0000      -0.164048        -4.4640 
  52   1.0000      -0.133992        -3.6461 
  53   1.0000      -0.131801        -3.5865 
  54   1.0000      -0.121199        -3.2980 
  55   1.0000      -0.109750        -2.9865 
  56   1.0000      -0.107263        -2.9188 
  57   1.0000      -0.083699        -2.2776 
  58   1.0000      -0.072994        -1.9863 
  59   1.0000      -0.063911        -1.7391 
  60   1.0000      -0.058281        -1.5859 
  61   1.0000      -0.044562        -1.2126 
  62   1.0000      -0.038536        -1.0486 
  63   1.0000      -0.028025        -0.7626 
  64   1.0000       0.002604         0.0709 
  65   1.0000       0.027810         0.7567 
  66   1.0000       0.030998         0.8435 
  67   1.0000       0.037095         1.0094 
  68   1.0000       0.045113         1.2276 
  69   1.0000       0.055028         1.4974 
  70   1.0000       0.067815         1.8453 
  71   1.0000       0.075227         2.0470 
  72   1.0000       0.081874         2.2279 
  73   0.0000       0.230178         6.2634 
  74   0.0000       0.243395         6.6231 
  75   0.0000       0.246576         6.7097 
  76   0.0000       0.250201         6.8083 
  77   0.0000       0.257362         7.0032 
  78   0.0000       0.259089         7.0502 
  79   0.0000       0.265664         7.2291 
  80   0.0000       0.283385         7.7113 
  81   0.0000       0.286155         7.7867 
  82   0.0000       0.296827         8.0771 
  83   0.0000       0.298080         8.1112 
  84   0.0000       0.303996         8.2721 
  85   0.0000       0.312344         8.4993 
  86   0.0000       0.316049         8.6001 
  87   0.0000       0.326167         8.8754 
  88   0.0000       0.329157         8.9568 
  89   0.0000       0.342941         9.3319 
  90   0.0000       0.346588         9.4311 
  91   0.0000       0.356586         9.7032 
  92   0.0000       0.363649         9.8954 
  93   0.0000       0.381701        10.3866 
  94   0.0000       0.382272        10.4021 
  95   0.0000       0.403171        10.9709 
  96   0.0000       0.413357        11.2480 
  97   0.0000       0.416059        11.3215 
  98   0.0000       0.432394        11.7660 
  99   0.0000       0.434981        11.8364 
 100   0.0000       0.442221        12.0334 
 101   0.0000       0.447867        12.1871 
 102   0.0000       0.457224        12.4417 
 103   0.0000       0.461620        12.5613 
 104   0.0000       0.465698        12.6723 
 105   0.0000       0.468284        12.7426 
 106   0.0000       0.479700        13.0533 
 107   0.0000       0.489535        13.3209 
 108   0.0000       0.493102        13.4180 
 109   0.0000       0.503654        13.7051 
 110   0.0000       0.518065        14.0973 
 111   0.0000       0.532350        14.4860 
 112   0.0000       0.535560        14.5733 
 113   0.0000       0.539885        14.6910 
 114   0.0000       0.553050        15.0492 
 115   0.0000       0.566266        15.4089 
 116   0.0000       0.576697        15.6927 
 117   0.0000       0.581178        15.8147 
 118   0.0000       0.583582        15.8801 
 119   0.0000       0.592979        16.1358 
 120   0.0000       0.600831        16.3495 
 121   0.0000       0.613120        16.6838 
 122   0.0000       0.617389        16.8000 
 123   0.0000       0.625690        17.0259 
 124   0.0000       0.631734        17.1904 
 125   0.0000       0.635836        17.3020 
 126   0.0000       0.642721        17.4893 
 127   0.0000       0.647974        17.6323 
 128   0.0000       0.653100        17.7718 
 129   0.0000       0.663724        18.0609 
 130   0.0000       0.665791        18.1171 
 131   0.0000       0.670631        18.2488 
 132   0.0000       0.675110        18.3707 
 133   0.0000       0.681345        18.5403 
 134   0.0000       0.682112        18.5612 
 135   0.0000       0.687895        18.7186 
 136   0.0000       0.696195        18.9444 
 137   0.0000       0.699818        19.0430 
 138   0.0000       0.704168        19.1614 
 139   0.0000       0.715114        19.4592 
 140   0.0000       0.723942        19.6995 
 141   0.0000       0.731639        19.9089 
 142   0.0000       0.732482        19.9318 
 143   0.0000       0.746227        20.3059 
 144   0.0000       0.758614        20.6429 
 145   0.0000       0.768783        20.9196 
 146   0.0000       0.783870        21.3302 
 147   0.0000       0.794895        21.6302 
 148   0.0000       0.813490        22.1362 
 149   0.0000       0.825564        22.4647 
 150   0.0000       0.831018        22.6132 
 151   0.0000       0.833197        22.6724 
 152   0.0000       0.870509        23.6878 
 153   0.0000       0.875807        23.8319 
 154   0.0000       0.894143        24.3309 
 155   0.0000       0.905995        24.6534 
 156   0.0000       0.921418        25.0730 
 157   0.0000       0.949111        25.8266 
 158   0.0000       0.990268        26.9466 
 159   0.0000       0.992355        27.0033 
 160   0.0000       1.002609        27.2824 
 161   0.0000       1.006488        27.3879 
 162   0.0000       1.023052        27.8387 
 163   0.0000       1.038945        28.2711 
 164   0.0000       1.049937        28.5702 
 165   0.0000       1.061908        28.8960 
 166   0.0000       1.072981        29.1973 
 167   0.0000       1.096869        29.8473 
 168   0.0000       1.102734        30.0069 
 169   0.0000       1.114943        30.3392 
 170   0.0000       1.134983        30.8844 
 171   0.0000       1.154206        31.4075 
 172   0.0000       1.158823        31.5332 
 173   0.0000       1.164355        31.6837 
 174   0.0000       1.185619        32.2623 
 175   0.0000       1.201795        32.7025 
 176   0.0000       1.238992        33.7147 
 177   0.0000       1.254619        34.1399 
 178   0.0000       1.286794        35.0155 
 179   0.0000       1.307229        35.5715 
 180   0.0000       1.340222        36.4693 
 181   0.0000       1.365781        37.1648 
 182   0.0000       1.382940        37.6317 
 183   0.0000       1.385414        37.6990 
 184   0.0000       1.428345        38.8672 
 185   0.0000       1.437323        39.1115 
 186   0.0000       1.443189        39.2712 
 187   0.0000       1.457818        39.6692 
 188   0.0000       1.487753        40.4838 
 189   0.0000       1.522946        41.4415 
 190   0.0000       1.530326        41.6423 
 191   0.0000       1.541569        41.9482 
 192   0.0000       1.543631        42.0043 
 193   0.0000       1.555255        42.3206 
 194   0.0000       1.568696        42.6864 
 195   0.0000       1.575177        42.8628 
 196   0.0000       1.581349        43.0307 
 197   0.0000       1.590866        43.2897 
 198   0.0000       1.610751        43.8308 
 199   0.0000       1.621296        44.1177 
 200   0.0000       1.631188        44.3869 
 201   0.0000       1.639931        44.6248 
 202   0.0000       1.655783        45.0561 
 203   0.0000       1.675704        45.5982 
 204   0.0000       1.692541        46.0564 
 205   0.0000       1.698083        46.2072 
 206   0.0000       1.703734        46.3610 
 207   0.0000       1.711363        46.5685 
 208   0.0000       1.714045        46.6415 
 209   0.0000       1.727931        47.0194 
 210   0.0000       1.744548        47.4716 
 211   0.0000       1.755317        47.7646 
 212   0.0000       1.780329        48.4452 
 213   0.0000       1.797373        48.9090 
 214   0.0000       1.811067        49.2816 
 215   0.0000       1.841219        50.1021 
 216   0.0000       1.852907        50.4202 
 217   0.0000       1.862157        50.6719 
 218   0.0000       1.887875        51.3717 
 219   0.0000       1.896918        51.6178 
 220   0.0000       1.913991        52.0824 
 221   0.0000       1.928856        52.4868 
 222   0.0000       1.940494        52.8035 
 223   0.0000       1.947617        52.9973 
 224   0.0000       1.991573        54.1935 
 225   0.0000       2.005169        54.5634 
 226   0.0000       2.011621        54.7390 
 227   0.0000       2.017785        54.9067 
 228   0.0000       2.029848        55.2350 
 229   0.0000       2.041550        55.5534 
 230   0.0000       2.046312        55.6830 
 231   0.0000       2.057192        55.9791 
 232   0.0000       2.064576        56.1800 
 233   0.0000       2.096515        57.0491 
 234   0.0000       2.100681        57.1624 
 235   0.0000       2.127426        57.8902 
 236   0.0000       2.139833        58.2278 
 237   0.0000       2.145614        58.3851 
 238   0.0000       2.163691        58.8770 
 239   0.0000       2.180002        59.3209 
 240   0.0000       2.197366        59.7934 
 241   0.0000       2.207831        60.0781 
 242   0.0000       2.213206        60.2244 
 243   0.0000       2.225815        60.5675 
 244   0.0000       2.260910        61.5225 
 245   0.0000       2.270870        61.7935 
 246   0.0000       2.293711        62.4151 
 247   0.0000       2.298958        62.5578 
 248   0.0000       2.320677        63.1488 
 249   0.0000       2.330215        63.4084 
 250   0.0000       2.352340        64.0104 
 251   0.0000       2.386421        64.9378 
 252   0.0000       2.395122        65.1746 
 253   0.0000       2.405341        65.4526 
 254   0.0000       2.426818        66.0371 
 255   0.0000       2.451140        66.6989 
 256   0.0000       2.459607        66.9293 
 257   0.0000       2.493790        67.8595 
 258   0.0000       2.499841        68.0241 
 259   0.0000       2.523516        68.6684 
 260   0.0000       2.535096        68.9835 
 261   0.0000       2.569642        69.9235 
 262   0.0000       2.571680        69.9790 
 263   0.0000       2.599899        70.7469 
 264   0.0000       2.614476        71.1435 
 265   0.0000       2.624086        71.4050 
 266   0.0000       2.640311        71.8465 
 267   0.0000       2.661157        72.4138 
 268   0.0000       2.673613        72.7527 
 269   0.0000       2.681732        72.9736 
 270   0.0000       2.697938        73.4146 
 271   0.0000       2.731911        74.3391 
 272   0.0000       2.752868        74.9093 
 273   0.0000       2.774663        75.5024 
 274   0.0000       2.776834        75.5615 
 275   0.0000       2.812173        76.5231 
 276   0.0000       2.819781        76.7301 
 277   0.0000       2.848501        77.5116 
 278   0.0000       2.871379        78.1342 
 279   0.0000       2.879056        78.3431 
 280   0.0000       2.897195        78.8367 
 281   0.0000       2.899905        78.9104 
 282   0.0000       2.904144        79.0258 
 283   0.0000       2.936724        79.9123 
 284   0.0000       2.939900        79.9987 
 285   0.0000       2.947786        80.2133 
 286   0.0000       2.954803        80.4043 
 287   0.0000       2.979293        81.0707 
 288   0.0000       2.993842        81.4666 
 289   0.0000       2.997376        81.5628 
 290   0.0000       3.031207        82.4833 
 291   0.0000       3.045430        82.8704 
 292   0.0000       3.054767        83.1244 
 293   0.0000       3.077326        83.7383 
 294   0.0000       3.080077        83.8132 
 295   0.0000       3.106075        84.5206 
 296   0.0000       3.175142        86.4000 
 297   0.0000       3.255114        88.5762 
 298   0.0000       3.277886        89.1958 
 299   0.0000       3.339943        90.8845 
 300   0.0000       3.403592        92.6165 
 301   0.0000       3.443520        93.7029 
 302   0.0000       3.479802        94.6902 
 303   0.0000       3.512038        95.5674 
 304   0.0000       3.529457        96.0414 
 305   0.0000       3.555111        96.7395 
 306   0.0000       3.578734        97.3823 
 307   0.0000       3.588431        97.6462 
 308   0.0000       3.611150        98.2644 
 309   0.0000       3.619873        98.5018 
 310   0.0000       3.663339        99.6845 
 311   0.0000       3.670595        99.8820 
 312   0.0000       3.696795       100.5949 
 313   0.0000       3.866688       105.2179 
 314   0.0000       3.891778       105.9007 
 315   0.0000       3.925942       106.8303 
 316   0.0000       4.041995       109.9883 
 317   0.0000       4.264341       116.0386 
 318   0.0000       4.578524       124.5880 
 319   0.0000       4.594391       125.0197 
 320   0.0000       4.597327       125.0996 
 321   0.0000       4.619135       125.6931 
 322   0.0000       4.648297       126.4866 
 323   0.0000       4.649334       126.5148 
 324   0.0000       5.216814       141.9567 
 325   0.0000       7.040968       191.5945 
 326   0.0000       7.100786       193.2222 
 327   0.0000       7.154033       194.6711 
 328   0.0000      18.813362       511.9376 
 329   0.0000      18.859125       513.1829 
 330   0.0000      19.062170       518.7080 
 331   0.0000      19.418164       528.3951 
 332   0.0000      19.844050       539.9840 
 333   0.0000      22.157221       602.9286 
 334   0.0000      22.198088       604.0407 
 335   0.0000      22.200256       604.0997 
 336   0.0000      22.269710       605.9896 
 337   0.0000      22.282881       606.3480 
 338   0.0000      22.367314       608.6456 
 339   0.0000      43.708190      1189.3603 
 340   0.0000     128.775466      3504.1586 
 341   0.0000     158.425983      4310.9902 
 342   0.0000     158.477238      4312.3849 
 343   0.0000     158.510188      4313.2815 
 344   0.0000     555.928909     15127.5947 
 345   0.0000    1893.327879     51520.0708 
 346   0.0000    6235.835337    169685.7062 
 347   0.0000   22016.260751    599092.9123 
 348   0.0000   90690.808720   2467822.3669 
 349   0.0000   462517.547019   12585742.3012 
 350   0.0000   1711386.101856   46569183.3630 
 351   0.0000   5079093.305732   138209155.2666 
 352   0.0000   14523636.821343   395208249.9079 

                 SPIN DOWN ORBITALS
  NO   OCC          E(Eh)            E(eV) 
   0   1.0000    -196.606883     -5349.9453 
   1   1.0000     -88.570502     -2410.1259 
   2   1.0000     -88.562050     -2409.8959 
   3   1.0000     -88.554628     -2409.6939 
   4   1.0000     -88.546135     -2409.4628 
   5   1.0000     -21.967048      -597.7538 
   6   1.0000     -18.827908      -512.3334 
   7   1.0000     -18.484621      -502.9921 
   8   1.0000     -18.466686      -502.5041 
   9   1.0000     -18.466172      -502.4901 
  10   1.0000      -9.961561      -271.0679 
  11   1.0000      -9.938562      -270.4420 
  12   1.0000      -9.933031      -270.2915 
  13   1.0000      -9.931630      -270.2534 
  14   1.0000      -9.930362      -270.2189 
  15   1.0000      -9.923117      -270.0217 
  16   1.0000      -7.621629      -207.3951 
  17   1.0000      -7.616363      -207.2518 
  18   1.0000      -7.609379      -207.0617 
  19   1.0000      -7.608102      -207.0270 
  20   1.0000      -5.588221      -152.0632 
  21   1.0000      -5.581520      -151.8809 
  22   1.0000      -5.580719      -151.8591 
  23   1.0000      -5.578154      -151.7893 
  24   1.0000      -5.575662      -151.7215 
  25   1.0000      -5.574600      -151.6926 
  26   1.0000      -5.573547      -151.6639 
  27   1.0000      -5.572154      -151.6260 
  28   1.0000      -5.568960      -151.5391 
  29   1.0000      -5.567032      -151.4866 
  30   1.0000      -5.566002      -151.4586 
  31   1.0000      -5.565033      -151.4322 
  32   1.0000      -2.329922       -63.4004 
  33   1.0000      -1.398318       -38.0502 
  34   1.0000      -1.341486       -36.5037 
  35   1.0000      -1.339669       -36.4542 
  36   1.0000      -0.594421       -16.1750 
  37   1.0000      -0.563018       -15.3205 
  38   1.0000      -0.552603       -15.0371 
  39   1.0000      -0.484577       -13.1860 
  40   1.0000      -0.467699       -12.7267 
  41   1.0000      -0.404078       -10.9955 
  42   1.0000      -0.391608       -10.6562 
  43   1.0000      -0.341406        -9.2901 
  44   1.0000      -0.332066        -9.0360 
  45   1.0000      -0.298104        -8.1118 
  46   1.0000      -0.283754        -7.7213 
  47   1.0000      -0.214032        -5.8241 
  48   1.0000      -0.205469        -5.5911 
  49   1.0000      -0.203735        -5.5439 
  50   1.0000      -0.195110        -5.3092 
  51   1.0000      -0.163876        -4.4593 
  52   1.0000      -0.133821        -3.6415 
  53   1.0000      -0.131530        -3.5791 
  54   1.0000      -0.121090        -3.2950 
  55   1.0000      -0.109445        -2.9782 
  56   1.0000      -0.107198        -2.9170 
  57   1.0000      -0.083246        -2.2652 
  58   1.0000      -0.070533        -1.9193 
  59   1.0000      -0.062706        -1.7063 
  60   1.0000      -0.058531        -1.5927 
  61   1.0000      -0.046151        -1.2558 
  62   1.0000      -0.040338        -1.0976 
  63   1.0000      -0.026881        -0.7315 
  64   1.0000       0.007299         0.1986 
  65   1.0000       0.029356         0.7988 
  66   1.0000       0.035444         0.9645 
  67   1.0000       0.044235         1.2037 
  68   1.0000       0.045981         1.2512 
  69   1.0000       0.065771         1.7897 
  70   1.0000       0.070136         1.9085 
  71   1.0000       0.075176         2.0456 
  72   0.0000       0.222551         6.0559 
  73   0.0000       0.249969         6.8020 
  74   0.0000       0.254255         6.9186 
  75   0.0000       0.258342         7.0298 
  76   0.0000       0.261599         7.1185 
  77   0.0000       0.265524         7.2253 
  78   0.0000       0.269138         7.3236 
  79   0.0000       0.278769         7.5857 
  80   0.0000       0.284154         7.7322 
  81   0.0000       0.288257         7.8439 
  82   0.0000       0.297349         8.0913 
  83   0.0000       0.299454         8.1486 
  84   0.0000       0.304893         8.2966 
  85   0.0000       0.312792         8.5115 
  86   0.0000       0.316953         8.6247 
  87   0.0000       0.327223         8.9042 
  88   0.0000       0.329630         8.9697 
  89   0.0000       0.343319         9.3422 
  90   0.0000       0.346753         9.4356 
  91   0.0000       0.357037         9.7155 
  92   0.0000       0.364476         9.9179 
  93   0.0000       0.382135        10.3984 
  94   0.0000       0.382601        10.4111 
  95   0.0000       0.404617        11.0102 
  96   0.0000       0.414580        11.2813 
  97   0.0000       0.418491        11.3877 
  98   0.0000       0.432927        11.7806 
  99   0.0000       0.435501        11.8506 
 100   0.0000       0.443249        12.0614 
 101   0.0000       0.448216        12.1966 
 102   0.0000       0.458321        12.4716 
 103   0.0000       0.462439        12.5836 
 104   0.0000       0.466698        12.6995 
 105   0.0000       0.469247        12.7689 
 106   0.0000       0.480370        13.0715 
 107   0.0000       0.490676        13.3520 
 108   0.0000       0.493921        13.4403 
 109   0.0000       0.505469        13.7545 
 110   0.0000       0.519837        14.1455 
 111   0.0000       0.536455        14.5977 
 112   0.0000       0.538404        14.6507 
 113   0.0000       0.541126        14.7248 
 114   0.0000       0.553917        15.0729 
 115   0.0000       0.568537        15.4707 
 116   0.0000       0.577185        15.7060 
 117   0.0000       0.581156        15.8141 
 118   0.0000       0.584950        15.9173 
 119   0.0000       0.595065        16.1925 
 120   0.0000       0.601580        16.3698 
 121   0.0000       0.613949        16.7064 
 122   0.0000       0.618423        16.8281 
 123   0.0000       0.626068        17.0362 
 124   0.0000       0.632207        17.2032 
 125   0.0000       0.636472        17.3193 
 126   0.0000       0.643361        17.5067 
 127   0.0000       0.648122        17.6363 
 128   0.0000       0.653740        17.7892 
 129   0.0000       0.663860        18.0646 
 130   0.0000       0.666169        18.1274 
 131   0.0000       0.670934        18.2570 
 132   0.0000       0.675293        18.3756 
 133   0.0000       0.681645        18.5485 
 134   0.0000       0.682804        18.5800 
 135   0.0000       0.689352        18.7582 
 136   0.0000       0.696813        18.9612 
 137   0.0000       0.700322        19.0567 
 138   0.0000       0.705117        19.1872 
 139   0.0000       0.715405        19.4672 
 140   0.0000       0.724716        19.7205 
 141   0.0000       0.731841        19.9144 
 142   0.0000       0.732887        19.9429 
 143   0.0000       0.746241        20.3063 
 144   0.0000       0.758618        20.6430 
 145   0.0000       0.769470        20.9384 
 146   0.0000       0.785551        21.3759 
 147   0.0000       0.797587        21.7034 
 148   0.0000       0.814031        22.1509 
 149   0.0000       0.826883        22.5006 
 150   0.0000       0.831146        22.6166 
 151   0.0000       0.834156        22.6986 
 152   0.0000       0.871371        23.7112 
 153   0.0000       0.874511        23.7967 
 154   0.0000       0.896264        24.3886 
 155   0.0000       0.907285        24.6885 
 156   0.0000       0.921160        25.0660 
 157   0.0000       0.950491        25.8642 
 158   0.0000       0.991290        26.9744 
 159   0.0000       0.994505        27.0619 
 160   0.0000       1.002639        27.2832 
 161   0.0000       1.007555        27.4170 
 162   0.0000       1.023292        27.8452 
 163   0.0000       1.039477        28.2856 
 164   0.0000       1.049882        28.5687 
 165   0.0000       1.062907        28.9232 
 166   0.0000       1.073783        29.2191 
 167   0.0000       1.097541        29.8656 
 168   0.0000       1.105466        30.0813 
 169   0.0000       1.115563        30.3560 
 170   0.0000       1.136707        30.9314 
 171   0.0000       1.156094        31.4589 
 172   0.0000       1.160947        31.5910 
 173   0.0000       1.166793        31.7500 
 174   0.0000       1.187074        32.3019 
 175   0.0000       1.203606        32.7518 
 176   0.0000       1.240198        33.7475 
 177   0.0000       1.275026        34.6952 
 178   0.0000       1.288573        35.0639 
 179   0.0000       1.308911        35.6173 
 180   0.0000       1.342244        36.5243 
 181   0.0000       1.369946        37.2781 
 182   0.0000       1.384029        37.6614 
 183   0.0000       1.395395        37.9706 
 184   0.0000       1.433270        39.0012 
 185   0.0000       1.438053        39.1314 
 186   0.0000       1.443940        39.2916 
 187   0.0000       1.458691        39.6930 
 188   0.0000       1.488886        40.5146 
 189   0.0000       1.523622        41.4599 
 190   0.0000       1.530926        41.6586 
 191   0.0000       1.542621        41.9768 
 192   0.0000       1.544423        42.0259 
 193   0.0000       1.555619        42.3305 
 194   0.0000       1.569756        42.7152 
 195   0.0000       1.575270        42.8653 
 196   0.0000       1.581685        43.0398 
 197   0.0000       1.591174        43.2980 
 198   0.0000       1.611444        43.8496 
 199   0.0000       1.621638        44.1270 
 200   0.0000       1.631628        44.3989 
 201   0.0000       1.640407        44.6378 
 202   0.0000       1.656319        45.0707 
 203   0.0000       1.676621        45.6232 
 204   0.0000       1.693670        46.0871 
 205   0.0000       1.700031        46.2602 
 206   0.0000       1.706696        46.4415 
 207   0.0000       1.712745        46.6062 
 208   0.0000       1.720660        46.8215 
 209   0.0000       1.732565        47.1455 
 210   0.0000       1.746736        47.5311 
 211   0.0000       1.760113        47.8951 
 212   0.0000       1.782543        48.5055 
 213   0.0000       1.800874        49.0043 
 214   0.0000       1.816700        49.4349 
 215   0.0000       1.841614        50.1129 
 216   0.0000       1.853144        50.4266 
 217   0.0000       1.863353        50.7044 
 218   0.0000       1.888192        51.3803 
 219   0.0000       1.900120        51.7049 
 220   0.0000       1.914820        52.1049 
 221   0.0000       1.930011        52.5183 
 222   0.0000       1.941838        52.8401 
 223   0.0000       1.947967        53.0069 
 224   0.0000       1.991812        54.2000 
 225   0.0000       2.005374        54.5690 
 226   0.0000       2.012665        54.7674 
[...]

Memory available               ... 901.9 MB
Memory needed per perturbation ...  15.7 MB
Perturbations treated per batch... 3
Number of batches              ... 1
     CP-SCF ITERATION   0:   4.5745e-02 (   2.5 sec   0/  3 done)
     CP-SCF ITERATION   1:   3.3067e-03 (   2.6 sec   0/  3 done)
     CP-SCF ITERATION   2:   1.0724e-03 (   2.6 sec   2/  3 done)
     CP-SCF ITERATION   3:   1.4983e-04 (   1.6 sec   3/  3 done)
                    *** THE CP-SCF HAS CONVERGED ***

Forming final perturbed densities           ... done
Transforming perturbed density to AO basis  ... done

 Raw HFC matrix (all values in MHz): 
 -----------------------------------
                -2.4872               0.2964               0.4569
                 0.2908              -1.4973               1.5255
                 0.4620               1.5341              -0.7379

 A(FC)          -1.5779              -1.5779              -1.5779
 A(SD)           2.1437              -0.9937              -1.1500
 A(ORB+DIA)     -0.0104               0.0074               0.0141    A(PC) =   0.0037
 A(ORB)         -0.0108               0.0077               0.0142    A(PC) =   0.0037
 A(DIA)          0.0004              -0.0003              -0.0002    A(PC) =  -0.0000
             ----------           ----------           ----------
 A(Tot)          0.5554              -2.5641              -2.7138    A(iso)=   -1.5742
 Orientation: 
  X           0.1757437           -0.9208715           -0.3480084
  Y           0.6044152            0.3799703           -0.7002178
  Z           0.7770434           -0.0872827            0.6233661

Notes:  (1) The A matrix conforms to the "SAI" spin Hamiltonian convention.
        (2) Tensor is right-handed.

 Raw EFG matrix (all values in a.u.**-3):
 -----------------------------------
            -0.1358      -0.0555      -0.0356
            -0.0555       0.1422       0.2025
            -0.0356       0.2025      -0.0064

 V(El)       0.5754       0.8120      -1.3874
 V(Nuc)     -0.7195      -0.9616       1.6811
         ----------   ----------   ----------
 V(Tot)     -0.1441      -0.1496       0.2937 
 Orientation: 
  X      -0.8135094   -0.5614564   -0.1515559
  Y       0.2224187   -0.5411744    0.8109625
  Z      -0.5373382    0.6260167    0.5651289

Note: Tensor is right-handed


 Quadrupole tensor eigenvalues (in MHz;Q= 0.0029 I=  1.0)
  e**2qQ            =     0.197205 MHz 
  e**2qQ/(4I*(2I-1))=     0.049301 MHz 
  eta               =     0.018588
  NOTE: the diagonal representation of the SH term I*Q*I = e**2qQ/(4I(2I-1))*[-(1-eta),-(1+eta),2]

 RHO(0)=      0.448121262 a.u.**-3

 -----------------------------------------------------------
 Nucleus  23H : A:ISTP=    1 I=  0.5 P=533.5514 MHz/au**3
                Q:ISTP=    2 I=  1.0 Q=  0.0029 barn     
 -----------------------------------------------------------
 Solving for nuclear perturbation:
Forming RHS of the CP-SCF equations         ... 
Calc. nucleus orbit integrals (SHARK)       ... done

------------------------------------------------------------------------------
                           ORCA CP-SCF CALCULATION
------------------------------------------------------------------------------

Input orbitals are from        ... input_23.gbw
Input Perturbation             ... input_23.pin.tmp
Wavefunction output            ... input_23.pout.tmp
Perturbation mode              ... Imaginary perturbation
Solver                         ... POPLE
Max. number of iterations      ... 64
Convergence tolerance          ... 1.000e-03
Integral handling              ... Direct
DFT GridXC                     ... 1
COSX GridX                     ... 1
COSX IntAccX                   ... 3.067
COSX Algorithm                 ... Auto
Number of perturbations        ... 3
Number of operators            ... 2
Orbital ranges used for CP-SCF:
 Operator 0:  Orbitals   0... 72  to  73...352
 Operator 1:  Orbitals   0... 71  to  72...352
Variables per perturbation     ... 40672
DFT calculation                         ... on
XC functional terms                     ... off
Hybrid DFT                              ... on
   Exchange mixing (SCF)                ...  0.200
   Exchange mixing (CP-SCF)             ...  0.200
   GGA exch. scaling(SCF)               ...  0.720
   GGA exch. scaling (CP-SCF)           ...  0.720
   GGA corr. scaling (SCF)              ...  0.810
   GGA corr. scaling (CP-SCF)           ...  0.810

CP-SCF GRID
-----------

General Integration Accuracy     IntAcc      ... 3.467
Radial Grid Type                 RadialGrid  ... OptM3 with GC (2021)
Angular Grid (max. ang.)         AngularGrid ... 1 (Lebedev-50)
Angular grid pruning method      GridPruning ... 4 (adaptive)
Weight generation scheme         WeightScheme... Becke
Basis function cutoff            BFCut       ... 1.0000e-10
Integration weight cutoff        WCut        ... 1.0000e-14
Angular grids for H and He will be reduced by one unit
Partially contracted basis set               ... off
Rotationally invariant grid construction     ... off

Total number of grid points                  ...    23557
Total number of batches                      ...      383
Average number of points per batch           ...       61
Average number of grid points per atom       ...      982

CP-SCF GRIDX
------------

General Integration Accuracy     IntAcc      ... 3.067
Radial Grid Type                 RadialGrid  ... OptM3 with GC (2021)
Angular Grid (max. ang.)         AngularGrid ... 1 (Lebedev-50)
Angular grid pruning method      GridPruning ... 4 (adaptive)
Weight generation scheme         WeightScheme... Becke
Basis function cutoff            BFCut       ... 1.0000e-10
Integration weight cutoff        WCut        ... 1.0000e-14
Angular grids for H and He will be reduced by one unit
Partially contracted basis set               ... on
Rotationally invariant grid construction     ... off

Total number of grid points                  ...    10208
Total number of batches                      ...      170
Average number of points per batch           ...       60
Average number of grid points per atom       ...      425

Memory available               ... 900.0 MB
Memory needed per perturbation ...  15.7 MB
Perturbations treated per batch... 3
Number of batches              ... 1
     CP-SCF ITERATION   0:   4.6555e-02 (   2.6 sec   0/  3 done)
     CP-SCF ITERATION   1:   6.2294e-03 (   2.6 sec   0/  3 done)
     CP-SCF ITERATION   2:   1.3729e-03 (   2.6 sec   0/  3 done)
     CP-SCF ITERATION   3:   2.2594e-04 (   2.6 sec   3/  3 done)
                    *** THE CP-SCF HAS CONVERGED ***

Forming final perturbed densities           ... done
Transforming perturbed density to AO basis  ... done

 Raw HFC matrix (all values in MHz): 
 -----------------------------------
                -2.0424               0.3083               0.4883
                 0.2955              -1.2635               1.9990
                 0.4707               1.9913               4.3050

 A(FC)           0.3276               0.3276               0.3276
 A(SD)          -2.1951              -2.5107               4.7058
 A(ORB+DIA)      0.0395               0.0213              -0.0445    A(PC) =   0.0055
 A(ORB)          0.0396               0.0216              -0.0457    A(PC) =   0.0052
 A(DIA)         -0.0001              -0.0003               0.0012    A(PC) =   0.0003
             ----------           ----------           ----------
 A(Tot)         -1.8280              -2.1618               4.9889    A(iso)=    0.3330
 Orientation: 
  X           0.4824050            0.8723528           -0.0792837
  Y           0.8208312           -0.4817950           -0.3067732
  Z          -0.3058130            0.0829104           -0.9484747

Notes:  (1) The A matrix conforms to the "SAI" spin Hamiltonian convention.
        (2) Tensor is right-handed.

 Raw EFG matrix (all values in a.u.**-3):
 -----------------------------------
             0.0385       0.1968      -0.0863
             0.1968       0.0623      -0.0956
            -0.0863      -0.0956      -0.1008

 V(El)       0.4219       0.5618      -0.9837
 V(Nuc)     -0.5638      -0.7099       1.2737
         ----------   ----------   ----------
 V(Tot)     -0.1419      -0.1481       0.2900 
 Orientation: 
  X       0.5278774    0.5471810    0.6495679
  Y      -0.1146425   -0.7119038    0.6928565
  Z       0.8415477   -0.4402113   -0.3130677

Note: Tensor is right-handed


 Quadrupole tensor eigenvalues (in MHz;Q= 0.0029 I=  1.0)
  e**2qQ            =     0.194747 MHz 
  e**2qQ/(4I*(2I-1))=     0.048687 MHz 
  eta               =     0.021509
  NOTE: the diagonal representation of the SH term I*Q*I = e**2qQ/(4I(2I-1))*[-(1-eta),-(1+eta),2]

 RHO(0)=      0.445866346 a.u.**-3

 -----------------------------------------------------------
 Nucleus   0V : A:ISTP=   51 I=  3.5 P=140.5173 MHz/au**3
                Q:ISTP=   51 I=  3.5 Q= -0.0430 barn     
 -----------------------------------------------------------
 Solving for nuclear perturbation:
Forming RHS of the CP-SCF equations         ... 
Calc. nucleus orbit integrals (SHARK)       ... done

------------------------------------------------------------------------------
                           ORCA CP-SCF CALCULATION
------------------------------------------------------------------------------

Input orbitals are from        ... input_23.gbw
Input Perturbation             ... input_23.pin.tmp
Wavefunction output            ... input_23.pout.tmp
Perturbation mode              ... Imaginary perturbation
Solver                         ... POPLE
Max. number of iterations      ... 64
Convergence tolerance          ... 1.000e-03
Integral handling              ... Direct
DFT GridXC                     ... 1
COSX GridX                     ... 1
COSX IntAccX                   ... 3.067
COSX Algorithm                 ... Auto
Number of perturbations        ... 3
Number of operators            ... 2
Orbital ranges used for CP-SCF:
 Operator 0:  Orbitals   0... 72  to  73...352
 Operator 1:  Orbitals   0... 71  to  72...352
Variables per perturbation     ... 40672
DFT calculation                         ... on
XC functional terms                     ... off
Hybrid DFT                              ... on
   Exchange mixing (SCF)                ...  0.200
   Exchange mixing (CP-SCF)             ...  0.200
   GGA exch. scaling(SCF)               ...  0.720
   GGA exch. scaling (CP-SCF)           ...  0.720
   GGA corr. scaling (SCF)              ...  0.810
   GGA corr. scaling (CP-SCF)           ...  0.810

CP-SCF GRID
-----------

General Integration Accuracy     IntAcc      ... 3.467
Radial Grid Type                 RadialGrid  ... OptM3 with GC (2021)
Angular Grid (max. ang.)         AngularGrid ... 1 (Lebedev-50)
Angular grid pruning method      GridPruning ... 4 (adaptive)
Weight generation scheme         WeightScheme... Becke
Basis function cutoff            BFCut       ... 1.0000e-10
Integration weight cutoff        WCut        ... 1.0000e-14
Angular grids for H and He will be reduced by one unit
Partially contracted basis set               ... off
Rotationally invariant grid construction     ... off

Total number of grid points                  ...    23557
Total number of batches                      ...      383
Average number of points per batch           ...       61
Average number of grid points per atom       ...      982

CP-SCF GRIDX
------------

General Integration Accuracy     IntAcc      ... 3.067
Radial Grid Type                 RadialGrid  ... OptM3 with GC (2021)
Angular Grid (max. ang.)         AngularGrid ... 1 (Lebedev-50)
Angular grid pruning method      GridPruning ... 4 (adaptive)
Weight generation scheme         WeightScheme... Becke
Basis function cutoff            BFCut       ... 1.0000e-10
Integration weight cutoff        WCut        ... 1.0000e-14
Angular grids for H and He will be reduced by one unit
Partially contracted basis set               ... on
Rotationally invariant grid construction     ... off

Total number of grid points                  ...    10208
Total number of batches                      ...      170
Average number of points per batch           ...       60
Average number of grid points per atom       ...      425

Memory available               ... 898.1 MB
Memory needed per perturbation ...  15.7 MB
Perturbations treated per batch... 3
Number of batches              ... 1
     CP-SCF ITERATION   0:   1.3580e+01 (   2.7 sec   0/  3 done)
     CP-SCF ITERATION   1:   2.6837e+00 (   2.6 sec   0/  3 done)
     CP-SCF ITERATION   2:   4.5673e-01 (   2.6 sec   0/  3 done)
     CP-SCF ITERATION   3:   7.4712e-02 (   2.6 sec   0/  3 done)
     CP-SCF ITERATION   4:   2.3653e-02 (   2.6 sec   0/  3 done)
     CP-SCF ITERATION   5:   4.5633e-03 (   2.6 sec   0/  3 done)
     CP-SCF ITERATION   6:   9.3390e-04 (   2.6 sec   3/  3 done)
                    *** THE CP-SCF HAS CONVERGED ***

Forming final perturbed densities           ... done
Transforming perturbed density to AO basis  ... done

 Raw HFC matrix (all values in MHz): 
 -----------------------------------
              -115.4785              -7.3188             101.5719
                -7.0685             -88.5805              29.7932
                99.1333              29.4048            -345.1197

 A(FC)        -171.0617            -171.0617            -171.0617
 A(SD)         102.7056              92.5588            -195.2644
 A(ORB+DIA)     -8.0220              -8.4311             -19.5405    A(PC) = -11.9979
 A(ORB)         -8.0222              -8.4310             -19.5405    A(PC) = -11.9979
 A(DIA)          0.0002              -0.0001               0.0000    A(PC) =   0.0000
             ----------           ----------           ----------
 A(Tot)        -76.3782             -86.9340            -385.8666    A(iso)= -183.0596
 Orientation: 
  X           0.8734730            0.3371016            0.3512941
  Y           0.3223780           -0.9411482            0.1015503
  Z           0.3648525            0.0245480           -0.9307416

Notes:  (1) The A matrix conforms to the "SAI" spin Hamiltonian convention.
        (2) Tensor is right-handed.

 Raw EFG matrix (all values in a.u.**-3):
 -----------------------------------
            -0.1330      -0.0223      -0.2470
            -0.0223      -0.2173      -0.0122
            -0.2470      -0.0122       0.3503

 V(El)      -0.0915      -0.3304       0.4219
 V(Nuc)     -0.1085       0.0762       0.0323
         ----------   ----------   ----------
 V(Tot)     -0.2000      -0.2542       0.4542 
 Orientation: 
  X       0.5224883    0.7594567   -0.3875970
  Y      -0.8247924    0.5654218   -0.0039501
  Z       0.2161558    0.3217510    0.9218205

Note: Tensor is right-handed


 Quadrupole tensor eigenvalues (in MHz;Q=-0.0430 I=  3.5)
  e**2qQ            =    -4.589310 MHz 
  e**2qQ/(4I*(2I-1))=    -0.054635 MHz 
  eta               =     0.119241
  NOTE: the diagonal representation of the SH term I*Q*I = e**2qQ/(4I(2I-1))*[-(1-eta),-(1+eta),2]

 RHO(0)=   8115.163673072 a.u.**-3


--------------------------------------------------------------------------------
----------------------------------------------------------------------------
                           ORCA EULER ANGLE PROGRAM
----------------------------------------------------------------------------

Only g-tensor available        -->  using g-tensor as reference tensor

Reference tensor               ...  g

g-tensor ordering              ...  |g_min> --> |gx>
                                    |g_mid> --> |gy>
                                    |g_max> --> |gz>

A- and EFG-tensor ordering     ...  the axes |Ax>, |Qx>, |Ay>, etc. are assigned
                                    such that the Euler rotation is minimal. You
                                    can find the respective eigenvalues as Ax,
                                    EFGx, Ay, etc. in the tables below.
                                    The relation of |Ax>, |Ay>,  etc. to Amin, Amid, etc.
                                    (as printed in the ORCA EPR/NMR CALCULATION Output)
                                    is obtained in the detailed printout.

Euler rotation around          ...  z - y - z
   First rotation              -->  by alpha around z
   Second rotation             -->  by beta around y'
   Third rotation              -->  by gamma around z''
   Positive / Negative angle   -->  clockwise / counterclockwise rotation

Plot EFG-tensors                    (-)
Plot HFC-tensors                    (-)
Detailed Printout                   (-)

-------------------------------------------------------------------------
          Euler rotation of hyperfine tensor to g-tensor
-------------------------------------------------------------------------

-------------------------------------------------------------------
 Atom  |   Alpha    Beta    Gamma   |   Ax       Ay       Az 
       |          [degrees]         |           [MHz]         
-------------------------------------------------------------------
  9H      -71.8     30.4     85.2      -2.52     1.13    -3.39
 10H      -32.1     28.0      0.0      -2.07     1.91    -1.41
 11H       85.9     29.1    -94.0      -2.87    -2.27     5.40
 12H      108.0     37.5   -126.0       0.50     0.76     3.02
 13H       57.2     53.4    -47.6       2.46    -2.11    -1.86
 14H     -151.7     39.5   -171.3      -5.42    -5.46    -2.16
 18H      152.4     22.7   -150.3      -2.24    -2.06     1.13
 19H      163.7     47.4   -138.3      -3.29    -3.63     3.18
 20H       67.8     31.2    -69.6      -0.16    -0.18     2.26
 21H     -102.2     43.9     97.2      -0.14     2.23    -0.08
 22H     -135.3     37.0    163.3      -2.71     0.56    -2.56
 23H      163.7     36.9    152.5       4.99    -1.83    -2.16
  0V      126.7     44.9   -127.1    -385.87   -86.93   -76.38
-------------------------------------------------------------------


-------------------------------------------------------------------------------
    Euler rotation of Electric Field Gradient (EFG) tensor to g-tensor
-------------------------------------------------------------------------------

-------------------------------------------------------------------
 Atom  |   Alpha    Beta    Gamma  |   EFGx     EFGy     EFGz
       |          [degrees]        |         [a.u.**-3]       
-------------------------------------------------------------------
  9H      108.0     28.8   -129.0      0.28    -0.13    -0.15
 10H        9.3     25.1    -51.9     -0.14     0.29    -0.15
 11H      112.6     22.7    -87.2      0.27    -0.13    -0.14
 12H      159.9     27.3   -132.0     -0.12    -0.11     0.22
 13H     -145.5     37.4    166.1      0.28    -0.13    -0.14
 14H     -131.3     26.8    148.8     -0.15    -0.13     0.28
 18H     -139.9     24.0    157.8     -0.15    -0.14     0.29
 19H     -157.4     40.4    167.5      0.29    -0.14    -0.15
 20H      -30.2     39.2      8.9     -0.14    -0.14     0.28
 21H      -25.8     22.4     -8.8     -0.14     0.28    -0.14
 22H      178.6     13.4   -154.4     -0.15     0.29    -0.14
 23H       93.4     18.5    -52.4      0.29    -0.15    -0.14
  0V     -124.5     39.2    104.0      0.45    -0.25    -0.20
-------------------------------------------------------------------


Maximum memory used throughout the entire EPRNMR-calculation: 160.0 MB

Timings for individual modules:

Sum of individual times         ...      862.385 sec (=  14.373 min)
GTO integral calculation        ...        0.921 sec (=   0.015 min)   0.1 %
Spin-Orbit-Coupling Matrices    ...        5.294 sec (=   0.088 min)   0.6 %
SCF iterations                  ...       98.258 sec (=   1.638 min)  11.4 %
EPR/NMR calculation             ...      757.911 sec (=  12.632 min)  87.9 %
                             ****ORCA TERMINATED NORMALLY****
TOTAL RUN TIME: 0 days 0 hours 14 minutes 23 seconds 233 msec
