
                                 *****************
                                 * O   R   C   A *
                                 *****************

                                            #,                                       
                                            ###                                      
                                            ####                                     
                                            #####                                    
                                            ######                                   
                                           ########,                                 
                                     ,,################,,,,,                         
                               ,,#################################,,                 
                          ,,##########################################,,             
                       ,#########################################, ''#####,          
                    ,#############################################,,   '####,        
                  ,##################################################,,,,####,       
                ,###########''''           ''''###############################       
              ,#####''   ,,,,##########,,,,          '''####'''          '####       
            ,##' ,,,,###########################,,,                        '##       
           ' ,,###''''                  '''############,,,                           
         ,,##''                                '''############,,,,        ,,,,,,###''
      ,#''                                            '''#######################'''  
     '                                                          ''''####''''         
             ,#######,   #######,   ,#######,      ##                                
            ,#'     '#,  ##    ##  ,#'     '#,    #''#        ######   ,####,        
            ##       ##  ##   ,#'  ##            #'  '#       #        #'  '#        
            ##       ##  #######   ##           ,######,      #####,   #    #        
            '#,     ,#'  ##    ##  '#,     ,#' ,#      #,         ##   #,  ,#        
             '#######'   ##     ##  '#######'  #'      '#     #####' # '####'        



                  #######################################################
                  #                        -***-                        #
                  #          Department of theory and spectroscopy      #
                  #    Directorship and core code : Frank Neese         #
                  #        Max Planck Institute fuer Kohlenforschung    #
                  #                Kaiser Wilhelm Platz 1               #
                  #                 D-45470 Muelheim/Ruhr               #
                  #                      Germany                        #
                  #                                                     #
                  #                  All rights reserved                #
                  #                        -***-                        #
                  #######################################################


                         Program Version 5.0.4 -  RELEASE  -


 With contributions from (in alphabetic order):
   Daniel Aravena         : Magnetic Suceptibility
   Michael Atanasov       : Ab Initio Ligand Field Theory (pilot matlab implementation)
   Alexander A. Auer      : GIAO ZORA, VPT2 properties, NMR spectrum
   Ute Becker             : Parallelization
   Giovanni Bistoni       : ED, misc. LED, open-shell LED, HFLD
   Martin Brehm           : Molecular dynamics
   Dmytro Bykov           : SCF Hessian
   Vijay G. Chilkuri      : MRCI spin determinant printing, contributions to CSF-ICE
   Dipayan Datta          : RHF DLPNO-CCSD density
   Achintya Kumar Dutta   : EOM-CC, STEOM-CC
   Dmitry Ganyushin       : Spin-Orbit,Spin-Spin,Magnetic field MRCI
   Miquel Garcia          : C-PCM and meta-GGA Hessian, CC/C-PCM, Gaussian charge scheme
   Yang Guo               : DLPNO-NEVPT2, F12-NEVPT2, CIM, IAO-localization
   Andreas Hansen         : Spin unrestricted coupled pair/coupled cluster methods
   Benjamin Helmich-Paris : MC-RPA, TRAH-SCF, COSX integrals
   Lee Huntington         : MR-EOM, pCC
   Robert Izsak           : Overlap fitted RIJCOSX, COSX-SCS-MP3, EOM
   Marcus Kettner         : VPT2
   Christian Kollmar      : KDIIS, OOCD, Brueckner-CCSD(T), CCSD density, CASPT2, CASPT2-K
   Simone Kossmann        : Meta GGA functionals, TD-DFT gradient, OOMP2, MP2 Hessian
   Martin Krupicka        : Initial AUTO-CI
   Lucas Lang             : DCDCAS
   Marvin Lechner         : AUTO-CI (C++ implementation), FIC-MRCC
   Dagmar Lenk            : GEPOL surface, SMD
   Dimitrios Liakos       : Extrapolation schemes; Compound Job, initial MDCI parallelization
   Dimitrios Manganas     : Further ROCIS development; embedding schemes
   Dimitrios Pantazis     : SARC Basis sets
   Anastasios Papadopoulos: AUTO-CI, single reference methods and gradients
   Taras Petrenko         : DFT Hessian,TD-DFT gradient, ASA, ECA, R-Raman, ABS, FL, XAS/XES, NRVS
   Peter Pinski           : DLPNO-MP2, DLPNO-MP2 Gradient
   Christoph Reimann      : Effective Core Potentials
   Marius Retegan         : Local ZFS, SOC
   Christoph Riplinger    : Optimizer, TS searches, QM/MM, DLPNO-CCSD(T), (RO)-DLPNO pert. Triples
   Tobias Risthaus        : Range-separated hybrids, TD-DFT gradient, RPA, STAB
   Michael Roemelt        : Original ROCIS implementation
   Masaaki Saitow         : Open-shell DLPNO-CCSD energy and density
   Barbara Sandhoefer     : DKH picture change effects
   Avijit Sen             : IP-ROCIS
   Kantharuban Sivalingam : CASSCF convergence, NEVPT2, FIC-MRCI
   Bernardo de Souza      : ESD, SOC TD-DFT
   Georgi Stoychev        : AutoAux, RI-MP2 NMR, DLPNO-MP2 response
   Willem Van den Heuvel  : Paramagnetic NMR
   Boris Wezisla          : Elementary symmetry handling
   Frank Wennmohs         : Technical directorship


 We gratefully acknowledge several colleagues who have allowed us to
 interface, adapt or use parts of their codes:
   Stefan Grimme, W. Hujo, H. Kruse, P. Pracht,  : VdW corrections, initial TS optimization,
                  C. Bannwarth, S. Ehlert          DFT functionals, gCP, sTDA/sTD-DF
   Ed Valeev, F. Pavosevic, A. Kumar             : LibInt (2-el integral package), F12 methods
   Garnet Chan, S. Sharma, J. Yang, R. Olivares  : DMRG
   Ulf Ekstrom                                   : XCFun DFT Library
   Mihaly Kallay                                 : mrcc  (arbitrary order and MRCC methods)
   Jiri Pittner, Ondrej Demel                    : Mk-CCSD
   Frank Weinhold                                : gennbo (NPA and NBO analysis)
   Christopher J. Cramer and Donald G. Truhlar   : smd solvation model
   Lars Goerigk                                  : TD-DFT with DH, B97 family of functionals
   V. Asgeirsson, H. Jonsson                     : NEB implementation
   FAccTs GmbH                                   : IRC, NEB, NEB-TS, DLPNO-Multilevel, CI-OPT
                                                   MM, QMMM, 2- and 3-layer-ONIOM, Crystal-QMMM,
                                                   LR-CPCM, SF, NACMEs, symmetry and pop. for TD-DFT,
                                                   nearIR, NL-DFT gradient (VV10), updates on ESD,
                                                   ML-optimized integration grids
   S Lehtola, MJT Oliveira, MAL Marques          : LibXC Library
   Liviu Ungur et al                             : ANISO software


 Your calculation uses the libint2 library for the computation of 2-el integrals
 For citations please refer to: http://libint.valeyev.net

 Your ORCA version has been built with support for libXC version: 5.1.0
 For citations please refer to: https://tddft.org/programs/libxc/

 This ORCA versions uses:
   CBLAS   interface :  Fast vector & matrix operations
   LAPACKE interface :  Fast linear algebra routines
   SCALAPACK package :  Parallel linear algebra routines
   Shared memory     :  Shared parallel matrices
   BLAS/LAPACK       :  OpenBLAS 0.3.15  USE64BITINT DYNAMIC_ARCH NO_AFFINITY Prescott SINGLE_THREADED
        Core in use  :  Prescott
   Copyright (c) 2011-2014, The OpenBLAS Project


================================================================================

----- Orbital basis set information -----
Your calculation utilizes the basis: TZVP 

The basis set includes element-specific modifications.

Your calculation utilizes the basis: CP(PPP) 

----- AuxJ basis set information -----
Your calculation utilizes the auxiliary basis: def2/J
   F. Weigend, Phys. Chem. Chem. Phys. 8, 1057 (2006).

================================================================================
                                        WARNINGS
                       Please study these warnings very carefully!
================================================================================


WARNING: your system is open-shell and RHF/RKS was chosen
  ===> : WILL SWITCH to UHF/UKS


INFO   : the flag for use of the SHARK integral package has been found!

================================================================================
                                       INPUT FILE
================================================================================
NAME = input_26.inp
|  1> ! nofrozencore ReducedPop printbasis
|  2> ! B3LYP TZVP
|  3> 
|  4> %basis
|  5> newgto V "CP(PPP)" end
|  6> end
|  7> 
|  8> %pal
|  9> nprocs 8
| 10> end
| 11> 
| 12> % sym SymThresh 1e-2 end
| 13> * xyz -2 2 
| 14> V -0.15590858891230436 0.4585171925844943 -0.08484961353953129
| 15> S 0.9964619798287658 0.7664111030027437 2.1479685588506303
| 16> S 2.132393922955602 -0.01675628400909946 -0.8082087012951701
| 17> S -1.9691760258422528 -0.7798174735721997 1.071400675372469
| 18> S -1.0241561692758947 -0.838489181078576 -2.0249020628707712
| 19> O -0.5570136886502943 1.9728350205860796 -0.42644955142116725
| 20> C 2.1432079439773024 -0.3132492499845808 -2.6119255670860304
| 21> C -0.2712827934391055 -0.19289134681172246 -3.5309970702587723
| 22> C 1.1272954777244406 0.49225473095123423 -3.4401939747321157
| 23> H -0.9321602905816752 0.697714709034077 -3.7209547039836672
| 24> H -0.41969998921951024 -0.8965886846407193 -4.403325519705461
| 25> H 0.8840164862522325 1.434486274679841 -2.9111625083068464
| 26> H 1.487797477862399 0.7815427114061622 -4.4474508043713294
| 27> H 1.7102089286699054 -1.3489418652833243 -2.6325504581760026
| 28> H 3.1888383376600937 -0.37883652809195784 -3.0227529621891764
| 29> C 0.5992771987450611 -0.8247824256853985 3.001956692264361
| 30> C -1.9008488372001526 -0.22881529488818977 2.837041432060177
| 31> C -0.7790523404109193 -0.8526490024822049 3.6736861853467246
| 32> H -2.8691803348231337 -0.46506401228032973 3.2947330369054075
| 33> H -1.7789013766622446 0.8542670023449921 2.845210863157188
| 34> H -1.033338728376933 -1.8967127464330824 3.915075124746346
| 35> H -0.7244174172300601 -0.30608685567282323 4.629203906435214
| 36> H 1.3735313303634156 -1.0126106988838675 3.755108608013892
| 37> H 0.660347315611122 -1.626800797800302 2.265929392475742
| 38> * 
| 39> 
| 40> % eprnmr
| 41> gtensor true
| 42> Nuclei = all H {aiso,adip,aorb,fgrad,rho}
| 43> Nuclei = all V {aiso,adip,aorb,fgrad,rho}
| 44> end
| 45> 
| 46>                          ****END OF INPUT****
================================================================================

------------------------------------------------------------------------------
                            SYMMETRY HANDLING SETUP
------------------------------------------------------------------------------

------------------
SYMMETRY DETECTION
------------------
The point group will now be determined using a tolerance of 1.0000e-02.
Splitting atom subsets according to nuclear charge, mass and basis set.
Splitting atom subsets according to distance from the molecule's center.
Identifying relative distance patterns of the atoms.
Splitting atom subsets according to atoms' relative distance patterns.
Bring atoms of each subset into input order.
The molecule is neither linear nor planar.
There is at least one atom subset not centered around the molecule's center.
The molecule does not have a center of inversion.
Analyzing the first atom subset for its symmetry.
The subset consists of a single off-center atom.
No testing is needed for point group C1.
This point group has been found:    C1
Largest non-degenerate subgroup:    C1


Mass-centered symmetry-perfected Cartesians (point group C1):

Atom          Symmetry-perfected Cartesians (x, y, z; au)
  0      -0.295192296218    0.867746285774   -0.160045408835
  1       1.882472483494    1.449581454767    4.059369443825
  2       4.029072762777   -0.030390423704   -1.526995981177
  3      -3.721771159573   -1.472367095403    2.024950979476
  4      -1.935942439545   -1.583240554399   -3.826213223515
  5      -1.053171085642    3.729392260412   -0.805575738796
  6       4.049508300914   -0.590680930032   -4.935526880656
  7      -0.513217945692   -0.363237454982   -6.672320319144
  8       2.129711963660    0.931500993720   -6.500727336486
  9      -1.762095423363    1.319764083778   -7.031288223932
 10      -0.793685799282   -1.693032704649   -8.320782187426
 11       1.669981295641    2.712060566109   -5.501002748716
 12       2.810962014651    1.478176050615   -8.404166891026
 13       3.231258745726   -2.547856331871   -4.974502276358
 14       6.025463382279   -0.714622923524   -5.711878145713
 15       1.131902022684   -1.557338540522    5.673173137595
 16      -3.592651485538   -0.431123878496    5.361528460505
 17      -1.472763328614   -1.609998738958    6.942557915598
 18      -5.422532822896   -0.877569253857    6.226440247457
 19      -3.362204182395    1.615605043773    5.376966447948
 20      -1.953294961454   -3.582993281381    7.398716902821
 21      -1.369518286455   -0.577145966320    8.748224724564
 22       2.595030289500   -1.912282537074    7.096423995600
 23       1.247307818528   -3.072933618192    4.282283113905


------------------
SYMMETRY REDUCTION
------------------
ORCA supports only abelian point groups.
It is now checked, if the determined point group is supported:
Point Group ( C1    ) is          ... supported

The point group is C1 - hence turning off symmetry
If this is a round-off problem, please increase the symmetry
        detection tolerance (%method SymThresh)

Storing the symmetry object:
Symmetry file                     ... input_26.sym.tmp
Writing symmetry information      ... done

                       ****************************
                       * Single Point Calculation *
                       ****************************

---------------------------------
CARTESIAN COORDINATES (ANGSTROEM)
---------------------------------
  V     -0.156209    0.459192   -0.084692
  S      0.996162    0.767085    2.148126
  S      2.132093   -0.016082   -0.808051
  S     -1.969476   -0.779143    1.071558
  S     -1.024457   -0.837815   -2.024745
  O     -0.557314    1.973509   -0.426292
  C      2.142907   -0.312575   -2.611768
  C     -0.271583   -0.192217   -3.530840
  C      1.126995    0.492929   -3.440037
  H     -0.932461    0.698389   -3.720797
  H     -0.420000   -0.895914   -4.403168
  H      0.883716    1.435161   -2.911005
  H      1.487497    0.782217   -4.447294
  H      1.709908   -1.348268   -2.632393
  H      3.188538   -0.378162   -3.022596
  C      0.598977   -0.824108    3.002114
  C     -1.901149   -0.228141    2.837199
  C     -0.779353   -0.851975    3.673843
  H     -2.869481   -0.464390    3.294890
  H     -1.779202    0.854941    2.845368
  H     -1.033639   -1.896038    3.915232
  H     -0.724718   -0.305412    4.629361
  H      1.373231   -1.011936    3.755266
  H      0.660047   -1.626126    2.266087

----------------------------
CARTESIAN COORDINATES (A.U.)
----------------------------
  NO LB      ZA    FRAG     MASS         X           Y           Z
   0 V    23.0000    0    50.940   -0.295192    0.867746   -0.160045
   1 S    16.0000    0    32.060    1.882472    1.449581    4.059369
   2 S    16.0000    0    32.060    4.029073   -0.030390   -1.526996
   3 S    16.0000    0    32.060   -3.721771   -1.472367    2.024951
   4 S    16.0000    0    32.060   -1.935942   -1.583241   -3.826213
   5 O     8.0000    0    15.999   -1.053171    3.729392   -0.805576
   6 C     6.0000    0    12.011    4.049508   -0.590681   -4.935527
   7 C     6.0000    0    12.011   -0.513218   -0.363237   -6.672320
   8 C     6.0000    0    12.011    2.129712    0.931501   -6.500727
   9 H     1.0000    0     1.008   -1.762095    1.319764   -7.031288
  10 H     1.0000    0     1.008   -0.793686   -1.693033   -8.320782
  11 H     1.0000    0     1.008    1.669981    2.712061   -5.501003
  12 H     1.0000    0     1.008    2.810962    1.478176   -8.404167
  13 H     1.0000    0     1.008    3.231259   -2.547856   -4.974502
  14 H     1.0000    0     1.008    6.025463   -0.714623   -5.711878
  15 C     6.0000    0    12.011    1.131902   -1.557339    5.673173
  16 C     6.0000    0    12.011   -3.592651   -0.431124    5.361528
  17 C     6.0000    0    12.011   -1.472763   -1.609999    6.942558
  18 H     1.0000    0     1.008   -5.422533   -0.877569    6.226440
  19 H     1.0000    0     1.008   -3.362204    1.615605    5.376966
  20 H     1.0000    0     1.008   -1.953295   -3.582993    7.398717
  21 H     1.0000    0     1.008   -1.369518   -0.577146    8.748225
  22 H     1.0000    0     1.008    2.595030   -1.912283    7.096424
  23 H     1.0000    0     1.008    1.247308   -3.072934    4.282283

--------------------------------
INTERNAL COORDINATES (ANGSTROEM)
--------------------------------
 V      0   0   0     0.000000000000     0.00000000     0.00000000
 S      1   0   0     2.531448908971     0.00000000     0.00000000
 S      1   2   0     2.446520311220    81.87314254     0.00000000
 S      1   2   3     2.481597524548    88.98879586   137.24256390
 S      1   2   3     2.489956405298   155.41251474    71.02096257
 O      1   2   3     1.603350960582   100.77355208   250.28625112
 C      3   1   2     1.827955019650   109.19541308   182.73869678
 C      5   1   2     1.803312800080   108.58245409   237.26177635
 C      7   3   1     1.538487360200   116.25697806    33.57940363
 H      8   5   1     1.125176481957   100.32045665   278.20225198
 H      8   5   1     1.130563811107   111.51681242   165.65108397
 H      9   7   3     1.107636782595   109.46811709    26.30161318
 H      9   7   3     1.108248865821   114.27862105   145.59656272
 H      7   3   1     1.122752299830    99.52436224   284.32780052
 H      7   3   1     1.125354948365   112.03507252   171.14041491
 C      2   1   3     1.849039839505   101.82479229   258.13248903
 C      4   1   2     1.850880678839   105.60149510    22.50363768
 C     17   4   1     1.532178291891   115.25965335   282.74372137
 H     17   4   1     1.096795765357   107.53959467   160.55034449
 H     17   4   1     1.089956506158   107.88455226    44.23745501
 H     18  17   4     1.101362469218   109.67038047   285.34012226
 H     18  17   4     1.102147572002   107.92586132   169.16994512
 H     16   2   1     1.096351553444   108.24068596   154.98918336
 H     16   2   1     1.090274834350   108.01151596    39.05837719

---------------------------
INTERNAL COORDINATES (A.U.)
---------------------------
 V      0   0   0     0.000000000000     0.00000000     0.00000000
 S      1   0   0     4.783745159968     0.00000000     0.00000000
 S      1   2   0     4.623253369282    81.87314254     0.00000000
 S      1   2   3     4.689539696013    88.98879586   137.24256390
 S      1   2   3     4.705335691417   155.41251474    71.02096257
 O      1   2   3     3.029894212060   100.77355208   250.28625112
 C      3   1   2     3.454334372264   109.19541308   182.73869678
 C      5   1   2     3.407767325946   108.58245409   237.26177635
 C      7   3   1     2.907319771278   116.25697806    33.57940363
 H      8   5   1     2.126275403228   100.32045665   278.20225198
 H      8   5   1     2.136455979915   111.51681242   165.65108397
 H      9   7   3     2.093130174962   109.46811709    26.30161318
 H      9   7   3     2.094286844631   114.27862105   145.59656272
 H      7   3   1     2.121694362909    99.52436224   284.32780052
 H      7   3   1     2.126612655863   112.03507252   171.14041491
 C      2   1   3     3.494178907373   101.82479229   258.13248903
 C      4   1   2     3.497657589572   105.60149510    22.50363768
 C     17   4   1     2.895397360013   115.25965335   282.74372137
 H     17   4   1     2.072643621368   107.53959467   160.55034449
 H     17   4   1     2.059719294524   107.88455226    44.23745501
 H     18  17   4     2.081273441001   109.67038047   285.34012226
 H     18  17   4     2.082757070250   107.92586132   169.16994512
 H     16   2   1     2.071804182507   108.24068596   154.98918336
 H     16   2   1     2.060320847629   108.01151596    39.05837719

---------------------
BASIS SET INFORMATION
---------------------
There are 5 groups of distinct atoms

 Group   1 Type V   : 17s11p5d1f contracted to 17s7p3d1f pattern {11111111111111111/3311111/311/1}
 Group   2 Type S   : 14s9p1d contracted to 5s4p1d pattern {73211/6111/1}
 Group   3 Type O   : 11s6p1d contracted to 5s3p1d pattern {62111/411/1}
 Group   4 Type C   : 11s6p1d contracted to 5s3p1d pattern {62111/411/1}
 Group   5 Type H   : 5s1p contracted to 3s1p pattern {311/1}

Atom   0V    basis set group =>   1
Atom   1S    basis set group =>   2
Atom   2S    basis set group =>   2
Atom   3S    basis set group =>   2
Atom   4S    basis set group =>   2
Atom   5O    basis set group =>   3
Atom   6C    basis set group =>   4
Atom   7C    basis set group =>   4
Atom   8C    basis set group =>   4
Atom   9H    basis set group =>   5
Atom  10H    basis set group =>   5
Atom  11H    basis set group =>   5
Atom  12H    basis set group =>   5
Atom  13H    basis set group =>   5
Atom  14H    basis set group =>   5
Atom  15C    basis set group =>   4
Atom  16C    basis set group =>   4
Atom  17C    basis set group =>   4
Atom  18H    basis set group =>   5
Atom  19H    basis set group =>   5
Atom  20H    basis set group =>   5
Atom  21H    basis set group =>   5
Atom  22H    basis set group =>   5
Atom  23H    basis set group =>   5

-------------------------
BASIS SET IN INPUT FORMAT
-------------------------

 # Basis set for element : H 
 NewGTO H 
 S 3 
   1      34.0613410000      0.0254393168
   2       5.1235746000      0.1900859340
   3       1.1646626000      0.8524411390
 S 1 
   1       0.3272304100      1.0000000000
 S 1 
   1       0.1030724100      1.0000000000
 P 1 
   1       0.8000000000      1.0000000000
  end;

 # Basis set for element : C 
 NewGTO C 
 S 6 
   1   13575.3496820000      0.0006064601
   2    2035.2333680000      0.0046978985
   3     463.2256235900      0.0243324735
   4     131.2001959800      0.0973999560
   5      42.8530158900      0.3019558443
   6      15.5841857700      0.6623361013
 S 2 
   1       6.2067138500      0.6559530795
   2       2.5764896500      0.3758563390
 S 1 
   1       0.5769633900      1.0000000000
 S 1 
   1       0.2297283100      1.0000000000
 S 1 
   1       0.0951644400      1.0000000000
 P 4 
   1      34.6972322400      0.0113272290
   2       7.9582622800      0.0761696612
   3       2.3780826900      0.3019225154
   4       0.8143320800      0.7278502776
 P 1 
   1       0.2888754700      1.0000000000
 P 1 
   1       0.1005682400      1.0000000000
 D 1 
   1       0.8000000000      1.0000000000
  end;

 # Basis set for element : O 
 NewGTO O 
 S 6 
   1   27032.3826310000      0.0005722654
   2    4052.3871392000      0.0044353333
   3     922.3272271000      0.0230201034
   4     261.2407098900      0.0928224938
   5      85.3546413500      0.2937849971
   6      31.0350352400      0.6740160462
 S 2 
   1      12.2608607300      0.6383993750
   2       4.9987076000      0.3953458663
 S 1 
   1       1.1703108200      1.0000000000
 S 1 
   1       0.4647474100      1.0000000000
 S 1 
   1       0.1850453600      1.0000000000
 P 4 
   1      63.2749548000      0.0120183316
   2      14.6270493800      0.0830054304
   3       4.4501223500      0.3199174388
   4       1.5275799600      0.7071554258
 P 1 
   1       0.5293511800      1.0000000000
 P 1 
   1       0.1747842100      1.0000000000
 D 1 
   1       1.2000000000      1.0000000000
  end;

 # Basis set for element : S 
 NewGTO S 
 S 7 
   1   60700.9281040000      0.0005238013
   2    9102.6106854000      0.0040506304
   3    2071.4166009000      0.0208270003
   4     586.0247682100      0.0814968475
   5     190.5539502100      0.2374911358
   6      67.6303842600      0.4472617145
   7      25.1273069100      0.3489191913
 S 3 
   1     112.5746301000      0.1004556993
   2      34.7955542200      0.4339117282
   3       6.5115556200     -1.2084330582
 S 2 
   1       3.2399032300      0.6749812922
   2       1.5477160900      0.3470879597
 S 1 
   1       0.4054103000      1.0000000000
 S 1 
   1       0.1455065100      1.0000000000
 P 6 
   1     564.3671602700      0.0025564845
   2     133.4262437900      0.0202874255
   3      42.4682711900      0.0927670112
   4      15.6165275800      0.2650208365
   5       6.1093988500      0.4486298663
   6       2.4404160200      0.3596369916
 P 1 
   1       0.8388220100      1.0000000000
 P 1 
   1       0.3128874700      1.0000000000
 P 1 
   1       0.1077010900      1.0000000000
 D 1 
   1       0.5500000000      1.0000000000
  end;

 # Basis set for element : V 
 NewGTO V 
 S 1 
   1  4239814.9912500000      1.0000000000
 S 1 
   1  1695925.9965000001      1.0000000000
 S 1 
   1  678370.3986000001      1.0000000000
 S 1 
   1  271348.1594400000      1.0000000000
 S 1 
   1   40672.0050780000      1.0000000000
 S 1 
   1    9257.0761385000      1.0000000000
 S 1 
   1    2622.7328773000      1.0000000000
 S 1 
   1     858.5948018500      1.0000000000
 S 1 
   1     314.1941865000      1.0000000000
 S 1 
   1     124.4786212700      1.0000000000
 S 1 
   1      50.4693993090      1.0000000000
 S 1 
   1      12.5138469110      1.0000000000
 S 1 
   1       5.3447758082      1.0000000000
 S 1 
   1       1.5755631295      1.0000000000
 S 1 
   1       0.6306903307      1.0000000000
 S 1 
   1       0.0879544416      1.0000000000
 S 1 
   1       0.0342969197      1.0000000000
 P 3 
   1    1450.0319327000     -0.0222847647
   2     343.7504988400     -0.1817959329
   3     110.8252170800     -0.8607412073
 P 3 
   1      41.8224645460     -0.2522537814
   2      17.0880737100     -0.4620379520
   3       7.2613218939     -0.3990010670
 P 1 
   1       2.9458145262      1.0000000000
 P 1 
   1       1.1650209680      1.0000000000
 P 1 
   1       0.4339937839      1.0000000000
 D 3 
   1      27.3603358640      0.0575501019
   2       7.4542765527      0.3023798347
   3       2.4632270217      0.7724212088
 D 1 
   1       0.8249954244      1.0000000000
 D 1 
   1       0.2526297057      1.0000000000
 P 1 
   1       0.1112480000      1.0000000000
 P 1 
   1       0.0363780000      1.0000000000
 F 1 
   1       1.8000000000      1.0000000000
  end;

---------------------------------
AUXILIARY/J BASIS SET INFORMATION
---------------------------------
There are 5 groups of distinct atoms

 Group   1 Type V   : 19s5p5d3f3g contracted to 8s5p5d2f3g pattern {121111111/11111/11111/21/111}
 Group   2 Type S   : 14s5p5d2f1g contracted to 8s4p3d1f1g pattern {71111111/2111/311/2/1}
 Group   3 Type O   : 12s5p4d2f1g contracted to 6s4p3d1f1g pattern {711111/2111/211/2/1}
 Group   4 Type C   : 12s5p4d2f1g contracted to 6s4p3d1f1g pattern {711111/2111/211/2/1}
 Group   5 Type H   : 5s2p1d contracted to 3s1p1d pattern {311/2/1}

Atom   0V    basis set group =>   1
Atom   1S    basis set group =>   2
Atom   2S    basis set group =>   2
Atom   3S    basis set group =>   2
Atom   4S    basis set group =>   2
Atom   5O    basis set group =>   3
Atom   6C    basis set group =>   4
Atom   7C    basis set group =>   4
Atom   8C    basis set group =>   4
Atom   9H    basis set group =>   5
Atom  10H    basis set group =>   5
Atom  11H    basis set group =>   5
Atom  12H    basis set group =>   5
Atom  13H    basis set group =>   5
Atom  14H    basis set group =>   5
Atom  15C    basis set group =>   4
Atom  16C    basis set group =>   4
Atom  17C    basis set group =>   4
Atom  18H    basis set group =>   5
Atom  19H    basis set group =>   5
Atom  20H    basis set group =>   5
Atom  21H    basis set group =>   5
Atom  22H    basis set group =>   5
Atom  23H    basis set group =>   5

-------------------------------------
AUXILIARY/J BASIS SET IN INPUT FORMAT
-------------------------------------

 # Auxiliary/J basis set for element : H 
 NewAuxJGTO H 
 S 3 
   1      15.6752927000      0.1007184237
   2       3.6063578000      0.3404257499
   3       1.2080016000      0.6491996172
 S 1 
   1       0.4726794000      1.0000000000
 S 1 
   1       0.2018100000      1.0000000000
 P 2 
   1       2.0281365000      0.5596620919
   2       0.5358730000      0.5596620919
 D 1 
   1       2.2165124000      1.0000000000
  end;

 # Auxiliary/J basis set for element : C 
 NewAuxJGTO C 
 S 7 
   1    1861.0916331000      0.0134602335
   2     642.9939764000      0.0299160374
   3     235.1105725000      0.1008649584
   4      90.7028894000      0.2370970548
   5      36.7794552000      0.3924037254
   6      15.6046273000      0.3195862154
   7       6.8907294000      0.0530104441
 S 1 
   1       3.1478850000     -1.0000000000
 S 1 
   1       1.4777287000      1.0000000000
 S 1 
   1       0.7076466000      1.0000000000
 S 1 
   1       0.3430122000      1.0000000000
 S 1 
   1       0.1669453000      1.0000000000
 P 2 
   1      13.5472892000     -0.6769313712
   2       5.4669419000     -0.3779500978
 P 1 
   1       2.1751721000      1.0000000000
 P 1 
   1       0.8582194000      1.0000000000
 P 1 
   1       0.3376720000      1.0000000000
 D 2 
   1       5.9287253000     -0.3533329857
   2       1.9809209000     -0.7456525731
 D 1 
   1       0.8055417000     -1.0000000000
 D 1 
   1       0.3531244000     -1.0000000000
 F 2 
   1       1.6755626000      0.6311076882
   2       0.5997536000      0.4968166032
 G 1 
   1       1.0024600000     -1.0000000000
  end;

 # Auxiliary/J basis set for element : O 
 NewAuxJGTO O 
 S 7 
   1    2876.8216605000      0.0168151159
   2    1004.7443032000      0.0340137548
   3     369.7579954000      0.1194951309
   4     142.9442404000      0.2664627624
   5      57.8366425000      0.4202764046
   6      24.3864983000      0.2765077335
   7      10.6622662000      0.0057008815
 S 1 
   1       4.8070437000     -1.0000000000
 S 1 
   1       2.2210770000      1.0000000000
 S 1 
   1       1.0447795000      1.0000000000
 S 1 
   1       0.4968425000      1.0000000000
 S 1 
   1       0.2371384000      1.0000000000
 P 2 
   1      64.2613382000     -0.2731534179
   2      16.3006076000     -0.8168011598
 P 1 
   1       4.3550542000      1.0000000000
 P 1 
   1       1.2019554000      1.0000000000
 P 1 
   1       0.3354196000      1.0000000000
 D 2 
   1       9.2146611000     -0.4661230638
   2       2.8435251000     -0.6600908911
 D 1 
   1       0.9955759000     -1.0000000000
 D 1 
   1       0.3649441000     -1.0000000000
 F 2 
   1       2.6420115000      0.5931563945
   2       0.7345613000      0.5931563945
 G 1 
   1       1.3931000000     -1.0000000000
  end;

 # Auxiliary/J basis set for element : S 
 NewAuxJGTO S 
 S 7 
   1    7399.0303145000      0.0295137551
   2    2710.1675859000      0.0559686311
   3    1034.3279062000      0.1764696370
   4     410.4645411000      0.3577969368
   5     168.9762502000      0.4299293578
   6      71.9687889000      0.1259148089
   7      31.6172683000     -0.0646025788
 S 1 
   1      14.2796836000      1.0000000000
 S 1 
   1       6.6060948000      1.0000000000
 S 1 
   1       3.1181477000      1.0000000000
 S 1 
   1       1.4954039000     -1.0000000000
 S 1 
   1       0.7254779000      1.0000000000
 S 1 
   1       0.3544216000      1.0000000000
 S 1 
   1       0.1735525000      1.0000000000
 P 2 
   1      12.6998799000      1.4059102813
   2       4.4295784000     -1.2124994202
 P 1 
   1       1.5232889000      1.0000000000
 P 1 
   1       0.5194667000     -1.0000000000
 P 1 
   1       0.1766547000     -1.0000000000
 D 3 
   1      16.8546461000      1.0295742104
   2       5.0810461000     -0.7461553923
   3       1.5102323000      0.8357028005
 D 1 
   1       0.4451331000      1.0000000000
 D 1 
   1       0.1308362000      1.0000000000
 F 2 
   1       1.0809860000      0.5572698934
   2       0.4161474000      0.5572698934
 G 1 
   1       0.6707100000     -1.0000000000
  end;

 # Auxiliary/J basis set for element : V 
 NewAuxJGTO V 
 S 12 
   1   11942.0842430000      0.0459866720
   2    2430.7110193000      0.1744615821
   3     841.0764301000      0.2900402792
   4     494.7508273000      0.1411212903
   5     291.0298903000      0.2660697186
   6     171.1940483000      0.0446365706
   7      59.2366916000     -0.0408204801
   8      34.8451117000      0.1394665381
   9      20.4971240000      0.2164746715
  10      12.0571314000      0.0864266611
  11       7.0924300000     -0.0568501658
  12       4.1720176000     -0.0126212852
 S 1 
   1       2.4541279000      1.0000000000
 S 1 
   1       1.4436046000      1.0000000000
 S 1 
   1       0.8491792000      1.0000000000
 S 1 
   1       0.2938336000      1.0000000000
 S 1 
   1       0.1728433000      1.0000000000
 S 1 
   1       0.1016725000      1.0000000000
 S 1 
   1       0.0598074000      1.0000000000
 P 1 
   1      16.7130979000     -1.0000000000
 P 1 
   1       4.7454037000     -1.0000000000
 P 1 
   1       1.3889998000      1.0000000000
 P 1 
   1       0.4142440000     -1.0000000000
 P 1 
   1       0.1243234000      1.0000000000
 D 1 
   1       7.7143225000      1.0000000000
 D 1 
   1       3.1170731000      1.0000000000
 D 1 
   1       1.2767950000     -1.0000000000
 D 1 
   1       0.5273386000      1.0000000000
 D 1 
   1       0.2184050000      1.0000000000
 F 2 
   1       3.1309344000     -1.0825667766
   2       1.0419780000      0.1809223232
 F 1 
   1       0.3559044000      1.0000000000
 G 1 
   1       8.7130110000      1.0000000000
 G 1 
   1       2.7493872000      1.0000000000
 G 1 
   1       0.8775089000      1.0000000000
  end;



           ************************************************************
           *        Program running with 8 parallel MPI-processes     *
           *              working on a common directory               *
           ************************************************************
------------------------------------------------------------------------------
                           ORCA GTO INTEGRAL CALCULATION
                           -- RI-GTO INTEGRALS CHOSEN --
------------------------------------------------------------------------------
------------------------------------------------------------------------------
                   ___                                                        
                  /   \      - P O W E R E D   B Y -                         
                 /     \                                                     
                 |  |  |   _    _      __       _____    __    __             
                 |  |  |  | |  | |    /  \     |  _  \  |  |  /  |          
                  \  \/   | |  | |   /    \    | | | |  |  | /  /          
                 / \  \   | |__| |  /  /\  \   | |_| |  |  |/  /          
                |  |  |   |  __  | /  /__\  \  |    /   |      \           
                |  |  |   | |  | | |   __   |  |    \   |  |\   \          
                \     /   | |  | | |  |  |  |  | |\  \  |  | \   \       
                 \___/    |_|  |_| |__|  |__|  |_| \__\ |__|  \__/        
                                                                              
                      - O R C A' S   B I G   F R I E N D -                    
                                      &                                       
                       - I N T E G R A L  F E E D E R -                       
                                                                              
 v1 FN, 2020, v2 2021                                                         
------------------------------------------------------------------------------


Reading SHARK input file input_26.SHARKINP.tmp ... ok
----------------------
SHARK INTEGRAL PACKAGE
----------------------

Number of atoms                             ...     24
Number of basis functions                   ...    353
Number of shells                            ...    179
Maximum angular momentum                    ...      3
Integral batch strategy                     ... SHARK/LIBINT Hybrid
RI-J (if used) integral strategy            ... SPLIT-RIJ (Revised 2003 algorithm where possible)
Printlevel                                  ...      1
Contraction scheme used                     ... SEGMENTED contraction
Coulomb Range Separation                    ... NOT USED
Exchange Range Separation                   ... NOT USED
Finite Nucleus Model                        ... NOT USED
Auxiliary Coulomb fitting basis             ... AVAILABLE
   # of basis functions in Aux-J            ...    768
   # of shells in Aux-J                     ...    256
   Maximum angular momentum in Aux-J        ...      4
Auxiliary J/K fitting basis                 ... NOT available
Auxiliary Correlation fitting basis         ... NOT available
Auxiliary 'external' fitting basis          ... NOT available
Integral threshold                          ...     1.000000e-10
Primitive cut-off                           ...     1.000000e-11
Primitive pair pre-selection threshold      ...     1.000000e-11

Calculating pre-screening integrals         ... done (  0.0 sec) Dimension = 179
Organizing shell pair data                  ... done (  0.1 sec)
Shell pair information
Total number of shell pairs                 ...     16110
Shell pairs after pre-screening             ...     11598
Total number of primitive shell pairs       ...     54315
Primitive shell pairs kept                  ...     25768
          la=0 lb=0:   3971 shell pairs
          la=1 lb=0:   4442 shell pairs
          la=1 lb=1:   1270 shell pairs
          la=2 lb=0:   1075 shell pairs
          la=2 lb=1:    615 shell pairs
          la=2 lb=2:     85 shell pairs
          la=3 lb=0:     77 shell pairs
          la=3 lb=1:     48 shell pairs
          la=3 lb=2:     14 shell pairs
          la=3 lb=3:      1 shell pairs

Calculating one electron integrals          ... done (  0.0 sec)
Calculating RI/J V-Matrix + Cholesky decomp.... done (  0.0 sec)
Calculating Nuclear repulsion               ... done (  0.0 sec) ENN=   1522.217839734242 Eh

SHARK setup successfully completed in   0.3 seconds

Maximum memory used throughout the entire GTOINT-calculation: 25.5 MB


           ************************************************************
           *        Program running with 8 parallel MPI-processes     *
           *              working on a common directory               *
           ************************************************************
-------------------------------------------------------------------------------
                                 ORCA SCF
-------------------------------------------------------------------------------

------------
SCF SETTINGS
------------
Hamiltonian:
 Density Functional     Method          .... DFT(GTOs)
 Exchange Functional    Exchange        .... B88
   X-Alpha parameter    XAlpha          ....  0.666667
   Becke's b parameter  XBeta           ....  0.004200
 Correlation Functional Correlation     .... LYP
 LDA part of GGA corr.  LDAOpt          .... VWN-5
 Gradients option       PostSCFGGA      .... off
 Hybrid DFT is turned on
   Fraction HF Exchange ScalHFX         ....  0.200000
   Scaling of DF-GGA-X  ScalDFX         ....  0.720000
   Scaling of DF-GGA-C  ScalDFC         ....  0.810000
   Scaling of DF-LDA-C  ScalLDAC        ....  1.000000
   Perturbative correction              ....  0.000000
   Density functional embedding theory  .... OFF
   NL short-range parameter             ....  4.800000
 RI-approximation to the Coulomb term is turned on
   Number of AuxJ basis functions       .... 768
   RIJ-COSX (HFX calculated with COS-X)).... on


General Settings:
 Integral files         IntName         .... input_26
 Hartree-Fock type      HFTyp           .... UHF
 Total Charge           Charge          ....   -2
 Multiplicity           Mult            ....    2
 Number of Electrons    NEL             ....  145
 Basis Dimension        Dim             ....  353
 Nuclear Repulsion      ENuc            ....   1522.2178397342 Eh

Convergence Acceleration:
 DIIS                   CNVDIIS         .... on
   Start iteration      DIISMaxIt       ....    12
   Startup error        DIISStart       ....  0.200000
   # of expansion vecs  DIISMaxEq       ....     5
   Bias factor          DIISBfac        ....   1.050
   Max. coefficient     DIISMaxC        ....  10.000
 Trust-Rad. Augm. Hess. CNVTRAH         .... auto
   Auto Start mean grad. ratio tolernc. ....  1.125000
   Auto Start start iteration           ....    20
   Auto Start num. interpolation iter.  ....    10
   Max. Number of Micro iterations      ....    16
   Max. Number of Macro iterations      .... Maxiter - #DIIS iter
   Number of Davidson start vectors     ....     2
   Converg. threshold I  (grad. norm)   ....   5.000e-05
   Converg. threshold II (energy diff.) ....   1.000e-06
   Grad. Scal. Fac. for Micro threshold ....   0.100
   Minimum threshold for Micro iter.    ....   0.010
   NR start threshold (gradient norm)   ....   0.001
   Initial trust radius                 ....   0.400
   Minimum AH scaling param. (alpha)    ....   1.000
   Maximum AH scaling param. (alpha)    .... 1000.000
   Orbital update algorithm             .... Taylor
   White noise on init. David. guess    .... on
   Maximum white noise                  ....   0.010
   Quad. conv. algorithm                .... NR
 SOSCF                  CNVSOSCF        .... off
 Level Shifting         CNVShift        .... on
   Level shift para.    LevelShift      ....    0.2500
   Turn off err/grad.   ShiftErr        ....    0.0010
 Zerner damping         CNVZerner       .... off
 Static damping         CNVDamp         .... on
   Fraction old density DampFac         ....    0.7000
   Max. Damping (<1)    DampMax         ....    0.9800
   Min. Damping (>=0)   DampMin         ....    0.0000
   Turn off err/grad.   DampErr         ....    0.1000
 Fernandez-Rico         CNVRico         .... off

SCF Procedure:
 Maximum # iterations   MaxIter         ....   125
 SCF integral mode      SCFMode         .... Direct
   Integral package                     .... SHARK and LIBINT hybrid scheme
 Reset frequency        DirectResetFreq ....    20
 Integral Threshold     Thresh          ....  1.000e-10 Eh
 Primitive CutOff       TCut            ....  1.000e-11 Eh

Convergence Tolerance:
 Convergence Check Mode ConvCheckMode   .... Total+1el-Energy
 Convergence forced     ConvForced      .... 0
 Energy Change          TolE            ....  1.000e-06 Eh
 1-El. energy change                    ....  1.000e-03 Eh
 DIIS Error             TolErr          ....  1.000e-06


Diagonalization of the overlap matrix:
Smallest eigenvalue                        ... 2.499e-04
Time for diagonalization                   ...    0.060 sec
Threshold for overlap eigenvalues          ... 1.000e-08
Number of eigenvalues below threshold      ... 0
Time for construction of square roots      ...    0.027 sec
Total time needed                          ...    0.089 sec

Time for model grid setup =    0.174 sec

------------------------------
INITIAL GUESS: MODEL POTENTIAL
------------------------------
Loading Hartree-Fock densities                     ... done
Calculating cut-offs                               ... done
Initializing the effective Hamiltonian             ... done
Setting up the integral package (SHARK)            ... done
Starting the Coulomb interaction                   ... done (   0.1 sec)
Reading the grid                                   ... done
Mapping shells                                     ... done
Starting the XC term evaluation                    ... done (   0.1 sec)
  promolecular density results
     # of electrons  =    142.997508879
     EX              =   -186.852216836
     EC              =     -5.515873736
     EX+EC           =   -192.368090572
Transforming the Hamiltonian                       ... done (   0.0 sec)
Diagonalizing the Hamiltonian                      ... done (   0.0 sec)
Back transforming the eigenvectors                 ... done (   0.0 sec)
Now organizing SCF variables                       ... done
                      ------------------
                      INITIAL GUESS DONE (   0.4 sec)
                      ------------------
-------------------
DFT GRID GENERATION
-------------------

General Integration Accuracy     IntAcc      ... 4.388
Radial Grid Type                 RadialGrid  ... OptM3 with GC (2021)
Angular Grid (max. ang.)         AngularGrid ... 4 (Lebedev-302)
Angular grid pruning method      GridPruning ... 4 (adaptive)
Weight generation scheme         WeightScheme... Becke
Basis function cutoff            BFCut       ... 1.0000e-10
Integration weight cutoff        WCut        ... 1.0000e-14
Angular grids for H and He will be reduced by one unit
Partially contracted basis set               ... off
Rotationally invariant grid construction     ... off

Total number of grid points                  ...   130986
Total number of batches                      ...     2059
Average number of points per batch           ...       63
Average number of grid points per atom       ...     5458
Time for grid setup =    0.900 sec

--------------------
COSX GRID GENERATION
--------------------

GRIDX 1
-------
General Integration Accuracy     IntAcc      ... 3.816
Radial Grid Type                 RadialGrid  ... OptM3 with GC (2021)
Angular Grid (max. ang.)         AngularGrid ... 1 (Lebedev-50)
Angular grid pruning method      GridPruning ... 4 (adaptive)
Weight generation scheme         WeightScheme... Becke
Basis function cutoff            BFCut       ... 1.0000e-10
Integration weight cutoff        WCut        ... 1.0000e-14
Angular grids for H and He will be reduced by one unit
Partially contracted basis set               ... on
Rotationally invariant grid construction     ... off

Total number of grid points                  ...    16457
Total number of batches                      ...      271
Average number of points per batch           ...       60
Average number of grid points per atom       ...      686
UseSFitting                                  ... on

GRIDX 2
-------
General Integration Accuracy     IntAcc      ... 4.020
Radial Grid Type                 RadialGrid  ... OptM3 with GC (2021)
Angular Grid (max. ang.)         AngularGrid ... 2 (Lebedev-110)
Angular grid pruning method      GridPruning ... 4 (adaptive)
Weight generation scheme         WeightScheme... Becke
Basis function cutoff            BFCut       ... 1.0000e-10
Integration weight cutoff        WCut        ... 1.0000e-14
Angular grids for H and He will be reduced by one unit
Partially contracted basis set               ... on
Rotationally invariant grid construction     ... off

Total number of grid points                  ...    34371
Total number of batches                      ...      551
Average number of points per batch           ...       62
Average number of grid points per atom       ...     1432
UseSFitting                                  ... on

GRIDX 3
-------
General Integration Accuracy     IntAcc      ... 4.338
Radial Grid Type                 RadialGrid  ... OptM3 with GC (2021)
Angular Grid (max. ang.)         AngularGrid ... 3 (Lebedev-194)
Angular grid pruning method      GridPruning ... 4 (adaptive)
Weight generation scheme         WeightScheme... Becke
Basis function cutoff            BFCut       ... 1.0000e-10
Integration weight cutoff        WCut        ... 1.0000e-14
Angular grids for H and He will be reduced by one unit
Partially contracted basis set               ... on
Rotationally invariant grid construction     ... off

Total number of grid points                  ...    77402
Total number of batches                      ...     1220
Average number of points per batch           ...       63
Average number of grid points per atom       ...     3225
UseSFitting                                  ... on

Time for X-Grid setup             =    0.725 sec

--------------
SCF ITERATIONS
--------------
ITER       Energy         Delta-E        Max-DP      RMS-DP      [F,P]     Damp
               ***  Starting incremental Fock matrix formation  ***
  0  -2847.0823695119   0.000000000000 0.05264314  0.00108219  0.2292236 0.7000
  1  -2847.3084526612  -0.226083149345 0.07524538  0.00102341  0.1558754 0.7000
                               ***Turning on DIIS***
  2  -2847.4482877373  -0.139835076091 0.05396904  0.00062137  0.1090071 0.7000
  3  -2847.5214260337  -0.073138296447 0.08917269  0.00093309  0.0771076 0.0000
  4  -2847.6935116990  -0.172085665245 0.04456813  0.00045998  0.0103198 0.0000
  5  -2847.6985108607  -0.004999161687 0.01175001  0.00013172  0.0093046 0.0000
  6  -2847.6995279491  -0.001017088384 0.00413463  0.00006436  0.0029278 0.0000
  7  -2847.6997399203  -0.000211971287 0.00237093  0.00003415  0.0012969 0.0000
  8  -2847.6998195723  -0.000079651934 0.00179452  0.00002540  0.0010499 0.0000
  9  -2847.6998726406  -0.000053068332 0.00289946  0.00004205  0.0006416 0.0000
               *** Restarting incremental Fock matrix formation ***
                                   *** Resetting DIIS ***
 10  -2847.6999741693  -0.000101528693 0.00137490  0.00001411  0.0005276 0.0000
 11  -2847.6999821502  -0.000007980932 0.00038921  0.00000684  0.0009478 0.0000
 12  -2847.6999880384  -0.000005888161 0.00040747  0.00000598  0.0004308 0.0000
 13  -2847.6999898971  -0.000001858656 0.00031539  0.00000436  0.0004842 0.0000
 14  -2847.6999934826  -0.000003585574 0.00030774  0.00000578  0.0001884 0.0000
 15  -2847.6999951459  -0.000001663267 0.00011077  0.00000176  0.0000895 0.0000
 16  -2847.6999952806  -0.000000134672 0.00006649  0.00000094  0.0000418 0.0000
 17  -2847.6999953186  -0.000000037997 0.00003987  0.00000053  0.0000220 0.0000
                 **** Energy Check signals convergence ****

               *****************************************************
               *                     SUCCESS                       *
               *           SCF CONVERGED AFTER  18 CYCLES          *
               *****************************************************

Old exchange energy                            =    -37.599812520 Eh
New exchange energy                            =    -37.599782303 Eh
Exchange energy change after final integration =      0.000030217 Eh
Total energy after final integration           =  -2847.699965186 Eh
Final COS-X integration done in                =     5.555 sec

----------------
TOTAL SCF ENERGY
----------------

Total Energy       :        -2847.69996519 Eh          -77489.85556 eV

Components:
Nuclear Repulsion  :         1522.21783973 Eh           41421.65326 eV
Electronic Energy  :        -4369.91780492 Eh         -118911.50882 eV
One Electron Energy:        -6995.18727278 Eh         -190348.72283 eV
Two Electron Energy:         2625.26946786 Eh           71437.21402 eV
Max COSX asymmetry :            0.00000159 Eh               0.00004 eV

Virial components:
Potential Energy   :        -5688.52437788 Eh         -154792.61783 eV
Kinetic Energy     :         2840.82441269 Eh           77302.76227 eV
Virial Ratio       :            2.00242027


DFT components:
N(Alpha)           :       73.000032586619 electrons
N(Beta)            :       72.000030454950 electrons
N(Total)           :      145.000063041569 electrons
E(X)               :     -149.513179564393 Eh       
E(C)               :       -6.525010631876 Eh       
E(XC)              :     -156.038190196268 Eh       
DFET-embed. en.    :        0.000000000000 Eh       

---------------
SCF CONVERGENCE
---------------

  Last Energy change         ...   -8.5013e-08  Tolerance :   1.0000e-06
  Last MAX-Density change    ...    0.0000e+00  Tolerance :   1.0000e-05
  Last RMS-Density change    ...    0.0000e+00  Tolerance :   1.0000e-06
  Last DIIS Error            ...    4.0406e-05  Tolerance :   1.0000e-06

             **** THE GBW FILE WAS UPDATED (input_26.gbw) ****
             **** DENSITY input_26.scfp WAS UPDATED ****
             **** ENERGY FILE WAS UPDATED (input_26.en.tmp) ****
----------------------
UHF SPIN CONTAMINATION
----------------------

Warning: in a DFT calculation there is little theoretical justification to 
         calculate <S**2> as in Hartree-Fock theory. We will do it anyways
         but you should keep in mind that the values have only limited relevance

Expectation value of <S**2>     :     0.765686
Ideal value S*(S+1) for S=0.5   :     0.750000
Deviation                       :     0.015686

             **** THE GBW FILE WAS UPDATED (input_26.gbw) ****
             **** DENSITY input_26.scfp WAS UPDATED ****
----------------
ORBITAL ENERGIES
----------------
                 SPIN UP ORBITALS
  NO   OCC          E(Eh)            E(eV) 
   0   1.0000    -196.608891     -5349.9999 
   1   1.0000     -88.562431     -2409.9063 
   2   1.0000     -88.560066     -2409.8419 
   3   1.0000     -88.559764     -2409.8337 
   4   1.0000     -88.558163     -2409.7901 
   5   1.0000     -21.984139      -598.2188 
   6   1.0000     -18.826095      -512.2841 
   7   1.0000     -18.491885      -503.1898 
   8   1.0000     -18.484790      -502.9967 
   9   1.0000     -18.484676      -502.9936 
  10   1.0000      -9.947045      -270.6729 
  11   1.0000      -9.937546      -270.4144 
  12   1.0000      -9.935201      -270.3506 
  13   1.0000      -9.934539      -270.3325 
  14   1.0000      -9.933275      -270.2982 
  15   1.0000      -9.932449      -270.2757 
  16   1.0000      -7.616624      -207.2589 
  17   1.0000      -7.614871      -207.2112 
  18   1.0000      -7.614405      -207.1985 
  19   1.0000      -7.612474      -207.1460 
  20   1.0000      -5.581789      -151.8882 
  21   1.0000      -5.580144      -151.8434 
  22   1.0000      -5.579694      -151.8312 
  23   1.0000      -5.577714      -151.7773 
  24   1.0000      -5.575654      -151.7212 
  25   1.0000      -5.573930      -151.6744 
  26   1.0000      -5.573848      -151.6721 
  27   1.0000      -5.573305      -151.6573 
  28   1.0000      -5.571765      -151.6154 
  29   1.0000      -5.571694      -151.6135 
  30   1.0000      -5.571524      -151.6089 
  31   1.0000      -5.569541      -151.5549 
  32   1.0000      -2.376712       -64.6736 
  33   1.0000      -1.419216       -38.6188 
  34   1.0000      -1.404863       -38.2283 
  35   1.0000      -1.404367       -38.2148 
  36   1.0000      -0.588612       -16.0170 
  37   1.0000      -0.551613       -15.0102 
  38   1.0000      -0.549043       -14.9402 
  39   1.0000      -0.472331       -12.8528 
  40   1.0000      -0.466578       -12.6962 
  41   1.0000      -0.407031       -11.0759 
  42   1.0000      -0.400137       -10.8883 
  43   1.0000      -0.337737        -9.1903 
  44   1.0000      -0.323724        -8.8090 
  45   1.0000      -0.297306        -8.0901 
  46   1.0000      -0.285519        -7.7694 
  47   1.0000      -0.214837        -5.8460 
  48   1.0000      -0.207883        -5.6568 
  49   1.0000      -0.203377        -5.5342 
  50   1.0000      -0.196002        -5.3335 
  51   1.0000      -0.152337        -4.1453 
  52   1.0000      -0.134665        -3.6644 
  53   1.0000      -0.132242        -3.5985 
  54   1.0000      -0.108603        -2.9552 
  55   1.0000      -0.108071        -2.9408 
  56   1.0000      -0.102481        -2.7887 
  57   1.0000      -0.084163        -2.2902 
  58   1.0000      -0.067927        -1.8484 
  59   1.0000      -0.064838        -1.7643 
  60   1.0000      -0.056530        -1.5382 
  61   1.0000      -0.049239        -1.3399 
  62   1.0000      -0.044383        -1.2077 
  63   1.0000      -0.037130        -1.0104 
  64   1.0000      -0.002061        -0.0561 
  65   1.0000       0.026249         0.7143 
  66   1.0000       0.029381         0.7995 
  67   1.0000       0.036468         0.9923 
  68   1.0000       0.045663         1.2425 
  69   1.0000       0.054260         1.4765 
  70   1.0000       0.066697         1.8149 
  71   1.0000       0.073357         1.9961 
  72   1.0000       0.080115         2.1801 
  73   0.0000       0.232927         6.3383 
  74   0.0000       0.244657         6.6575 
  75   0.0000       0.248409         6.7596 
  76   0.0000       0.253450         6.8967 
  77   0.0000       0.258088         7.0229 
  78   0.0000       0.262220         7.1354 
  79   0.0000       0.278740         7.5849 
  80   0.0000       0.287659         7.8276 
  81   0.0000       0.291545         7.9333 
  82   0.0000       0.295201         8.0328 
  83   0.0000       0.301421         8.2021 
  84   0.0000       0.304226         8.2784 
  85   0.0000       0.310258         8.4426 
  86   0.0000       0.318205         8.6588 
  87   0.0000       0.325496         8.8572 
  88   0.0000       0.327690         8.9169 
  89   0.0000       0.340163         9.2563 
  90   0.0000       0.352927         9.6036 
  91   0.0000       0.356723         9.7069 
  92   0.0000       0.364387         9.9155 
  93   0.0000       0.382936        10.4202 
  94   0.0000       0.389394        10.5959 
  95   0.0000       0.404274        11.0009 
  96   0.0000       0.410864        11.1802 
  97   0.0000       0.414932        11.2909 
  98   0.0000       0.429012        11.6740 
  99   0.0000       0.433739        11.8026 
 100   0.0000       0.437721        11.9110 
 101   0.0000       0.445034        12.1100 
 102   0.0000       0.447933        12.1889 
 103   0.0000       0.456370        12.4185 
 104   0.0000       0.464801        12.6479 
 105   0.0000       0.472443        12.8558 
 106   0.0000       0.476479        12.9657 
 107   0.0000       0.487634        13.2692 
 108   0.0000       0.491775        13.3819 
 109   0.0000       0.501212        13.6387 
 110   0.0000       0.513120        13.9627 
 111   0.0000       0.529739        14.4149 
 112   0.0000       0.537363        14.6224 
 113   0.0000       0.542881        14.7725 
 114   0.0000       0.555013        15.1027 
 115   0.0000       0.561954        15.2916 
 116   0.0000       0.575685        15.6652 
 117   0.0000       0.577181        15.7059 
 118   0.0000       0.581922        15.8349 
 119   0.0000       0.592839        16.1320 
 120   0.0000       0.605597        16.4791 
 121   0.0000       0.609807        16.5937 
 122   0.0000       0.618549        16.8316 
 123   0.0000       0.624406        16.9909 
 124   0.0000       0.634504        17.2657 
 125   0.0000       0.638781        17.3821 
 126   0.0000       0.644988        17.5510 
 127   0.0000       0.648894        17.6573 
 128   0.0000       0.652478        17.7548 
 129   0.0000       0.665711        18.1149 
 130   0.0000       0.668420        18.1886 
 131   0.0000       0.671829        18.2814 
 132   0.0000       0.675521        18.3819 
 133   0.0000       0.679673        18.4948 
 134   0.0000       0.684115        18.6157 
 135   0.0000       0.686152        18.6711 
 136   0.0000       0.690458        18.7883 
 137   0.0000       0.702218        19.1083 
 138   0.0000       0.707225        19.2446 
 139   0.0000       0.718136        19.5415 
 140   0.0000       0.720581        19.6080 
 141   0.0000       0.732742        19.9389 
 142   0.0000       0.745017        20.2729 
 143   0.0000       0.747071        20.3288 
 144   0.0000       0.758379        20.6365 
 145   0.0000       0.765134        20.8204 
 146   0.0000       0.781496        21.2656 
 147   0.0000       0.798656        21.7325 
 148   0.0000       0.811057        22.0700 
 149   0.0000       0.818409        22.2700 
 150   0.0000       0.826644        22.4941 
 151   0.0000       0.845247        23.0003 
 152   0.0000       0.866267        23.5723 
 153   0.0000       0.876640        23.8546 
 154   0.0000       0.896618        24.3982 
 155   0.0000       0.912028        24.8175 
 156   0.0000       0.921987        25.0885 
 157   0.0000       0.966064        26.2879 
 158   0.0000       0.987961        26.8838 
 159   0.0000       0.992418        27.0051 
 160   0.0000       0.999815        27.2063 
 161   0.0000       1.008759        27.4497 
 162   0.0000       1.013508        27.5790 
 163   0.0000       1.027864        27.9696 
 164   0.0000       1.042392        28.3649 
 165   0.0000       1.047387        28.5008 
 166   0.0000       1.068397        29.0726 
 167   0.0000       1.078414        29.3451 
 168   0.0000       1.087038        29.5798 
 169   0.0000       1.118605        30.4388 
 170   0.0000       1.141161        31.0526 
 171   0.0000       1.154482        31.4151 
 172   0.0000       1.160070        31.5671 
 173   0.0000       1.172805        31.9136 
 174   0.0000       1.179881        32.1062 
 175   0.0000       1.198783        32.6205 
 176   0.0000       1.252855        34.0919 
 177   0.0000       1.281609        34.8744 
 178   0.0000       1.293948        35.2101 
 179   0.0000       1.303521        35.4706 
 180   0.0000       1.325692        36.0739 
 181   0.0000       1.347611        36.6704 
 182   0.0000       1.372362        37.3439 
 183   0.0000       1.383249        37.6401 
 184   0.0000       1.431779        38.9607 
 185   0.0000       1.438208        39.1356 
 186   0.0000       1.453235        39.5445 
 187   0.0000       1.456923        39.6449 
 188   0.0000       1.482640        40.3447 
 189   0.0000       1.524393        41.4808 
 190   0.0000       1.532754        41.7084 
 191   0.0000       1.535682        41.7880 
 192   0.0000       1.553865        42.2828 
 193   0.0000       1.556447        42.3531 
 194   0.0000       1.567902        42.6648 
 195   0.0000       1.575265        42.8651 
 196   0.0000       1.583994        43.1027 
 197   0.0000       1.592956        43.3465 
 198   0.0000       1.621927        44.1349 
 199   0.0000       1.630037        44.3556 
 200   0.0000       1.634572        44.4790 
 201   0.0000       1.637277        44.5526 
 202   0.0000       1.645618        44.7795 
 203   0.0000       1.653967        45.0067 
 204   0.0000       1.690568        46.0027 
 205   0.0000       1.699357        46.2419 
 206   0.0000       1.700511        46.2733 
 207   0.0000       1.710184        46.5365 
 208   0.0000       1.719094        46.7789 
 209   0.0000       1.733995        47.1844 
 210   0.0000       1.743270        47.4368 
 211   0.0000       1.745246        47.4906 
 212   0.0000       1.776208        48.3331 
 213   0.0000       1.795260        48.8515 
 214   0.0000       1.801934        49.0331 
 215   0.0000       1.847631        50.2766 
 216   0.0000       1.853515        50.4367 
 217   0.0000       1.872723        50.9594 
 218   0.0000       1.881676        51.2030 
 219   0.0000       1.899348        51.6839 
 220   0.0000       1.916418        52.1484 
 221   0.0000       1.932738        52.5925 
 222   0.0000       1.940090        52.7925 
 223   0.0000       1.945199        52.9315 
 224   0.0000       1.988375        54.1064 
 225   0.0000       2.002938        54.5027 
 226   0.0000       2.014203        54.8093 
 227   0.0000       2.031368        55.2763 
 228   0.0000       2.039468        55.4967 
 229   0.0000       2.047827        55.7242 
 230   0.0000       2.058584        56.0169 
 231   0.0000       2.062845        56.1329 
 232   0.0000       2.093949        56.9792 
 233   0.0000       2.098288        57.0973 
 234   0.0000       2.105723        57.2996 
 235   0.0000       2.132485        58.0279 
 236   0.0000       2.151867        58.5553 
 237   0.0000       2.158574        58.7378 
 238   0.0000       2.164051        58.8868 
 239   0.0000       2.180183        59.3258 
 240   0.0000       2.199864        59.8613 
 241   0.0000       2.208356        60.0924 
 242   0.0000       2.235346        60.8269 
 243   0.0000       2.247992        61.1710 
 244   0.0000       2.257783        61.4374 
 245   0.0000       2.275157        61.9102 
 246   0.0000       2.283148        62.1276 
 247   0.0000       2.300852        62.6094 
 248   0.0000       2.317692        63.0676 
 249   0.0000       2.342047        63.7303 
 250   0.0000       2.356695        64.1289 
 251   0.0000       2.382796        64.8392 
 252   0.0000       2.387872        64.9773 
 253   0.0000       2.396673        65.2168 
 254   0.0000       2.415158        65.7198 
 255   0.0000       2.449306        66.6490 
 256   0.0000       2.475742        67.3684 
 257   0.0000       2.496934        67.9450 
 258   0.0000       2.512257        68.3620 
 259   0.0000       2.521642        68.6174 
 260   0.0000       2.531262        68.8792 
 261   0.0000       2.566364        69.8343 
 262   0.0000       2.574171        70.0467 
 263   0.0000       2.580584        70.2213 
 264   0.0000       2.612676        71.0945 
 265   0.0000       2.624733        71.4226 
 266   0.0000       2.637989        71.7833 
 267   0.0000       2.662322        72.4455 
 268   0.0000       2.672062        72.7105 
 269   0.0000       2.675904        72.8151 
 270   0.0000       2.690200        73.2041 
 271   0.0000       2.750770        74.8523 
 272   0.0000       2.769128        75.3518 
 273   0.0000       2.773682        75.4757 
 274   0.0000       2.789862        75.9160 
 275   0.0000       2.843131        77.3655 
 276   0.0000       2.843954        77.3879 
 277   0.0000       2.849149        77.5293 
 278   0.0000       2.867833        78.0377 
 279   0.0000       2.875799        78.2545 
 280   0.0000       2.896183        78.8092 
 281   0.0000       2.903638        79.0120 
 282   0.0000       2.917331        79.3846 
 283   0.0000       2.936132        79.8962 
 284   0.0000       2.939392        79.9849 
 285   0.0000       2.949620        80.2632 
 286   0.0000       2.966497        80.7225 
 287   0.0000       2.980182        81.0949 
 288   0.0000       2.994044        81.4721 
 289   0.0000       3.003486        81.7290 
 290   0.0000       3.032526        82.5192 
 291   0.0000       3.046174        82.8906 
 292   0.0000       3.050598        83.0110 
 293   0.0000       3.067035        83.4583 
 294   0.0000       3.083749        83.9131 
 295   0.0000       3.105151        84.4955 
 296   0.0000       3.161389        86.0258 
 297   0.0000       3.274177        89.0949 
 298   0.0000       3.278450        89.2112 
 299   0.0000       3.307213        89.9938 
 300   0.0000       3.398008        92.4645 
 301   0.0000       3.443356        93.6985 
 302   0.0000       3.469483        94.4094 
 303   0.0000       3.506076        95.4052 
 304   0.0000       3.526816        95.9695 
 305   0.0000       3.554916        96.7342 
 306   0.0000       3.583096        97.5010 
 307   0.0000       3.601674        98.0065 
 308   0.0000       3.605778        98.1182 
 309   0.0000       3.647315        99.2485 
 310   0.0000       3.659366        99.5764 
 311   0.0000       3.665675        99.7481 
 312   0.0000       3.709705       100.9462 
 313   0.0000       3.871640       105.3527 
 314   0.0000       3.890969       105.8786 
 315   0.0000       3.926221       106.8379 
 316   0.0000       4.045797       110.0917 
 317   0.0000       4.263008       116.0023 
 318   0.0000       4.576355       124.5289 
 319   0.0000       4.592347       124.9641 
 320   0.0000       4.595337       125.0455 
 321   0.0000       4.617392       125.6456 
 322   0.0000       4.646464       126.4367 
 323   0.0000       4.647094       126.4539 
 324   0.0000       5.215439       141.9193 
 325   0.0000       7.037716       191.5060 
 326   0.0000       7.100778       193.2220 
 327   0.0000       7.161110       194.8637 
 328   0.0000      18.838625       512.6250 
 329   0.0000      18.929905       515.1089 
 330   0.0000      19.044269       518.2209 
 331   0.0000      19.096206       519.6342 
 332   0.0000      19.838256       539.8264 
 333   0.0000      22.159321       602.9858 
 334   0.0000      22.174022       603.3858 
 335   0.0000      22.201141       604.1237 
 336   0.0000      22.266474       605.9016 
 337   0.0000      22.328141       607.5796 
 338   0.0000      22.361920       608.4988 
 339   0.0000      43.708904      1189.3797 
 340   0.0000     128.773765      3504.1123 
 341   0.0000     158.422966      4310.9081 
 342   0.0000     158.476924      4312.3763 
 343   0.0000     158.513476      4313.3710 
 344   0.0000     555.927141     15127.5466 
 345   0.0000    1893.326041     51520.0208 
 346   0.0000    6235.833438    169685.6545 
 347   0.0000   22016.258803    599092.8593 
 348   0.0000   90690.806730   2467822.3128 
 349   0.0000   462517.544991   12585742.2460 
 350   0.0000   1711386.099814   46569183.3075 
 351   0.0000   5079093.303675   138209155.2107 
 352   0.0000   14523636.819246   395208249.8509 

                 SPIN DOWN ORBITALS
  NO   OCC          E(Eh)            E(eV) 
   0   1.0000    -196.609032     -5350.0037 
   1   1.0000     -88.562590     -2409.9106 
   2   1.0000     -88.560231     -2409.8464 
   3   1.0000     -88.559880     -2409.8369 
   4   1.0000     -88.558134     -2409.7893 
   5   1.0000     -21.969107      -597.8098 
   6   1.0000     -18.829567      -512.3786 
   7   1.0000     -18.486681      -503.0482 
   8   1.0000     -18.468730      -502.5597 
   9   1.0000     -18.468258      -502.5468 
  10   1.0000      -9.946866      -270.6680 
  11   1.0000      -9.937415      -270.4108 
  12   1.0000      -9.935014      -270.3455 
  13   1.0000      -9.934484      -270.3311 
  14   1.0000      -9.933288      -270.2985 
  15   1.0000      -9.932407      -270.2745 
  16   1.0000      -7.616774      -207.2630 
  17   1.0000      -7.614981      -207.2142 
  18   1.0000      -7.614567      -207.2029 
  19   1.0000      -7.612448      -207.1453 
  20   1.0000      -5.581944      -151.8924 
  21   1.0000      -5.580271      -151.8469 
  22   1.0000      -5.579851      -151.8355 
  23   1.0000      -5.577728      -151.7777 
  24   1.0000      -5.576075      -151.7327 
  25   1.0000      -5.574326      -151.6851 
  26   1.0000      -5.573964      -151.6753 
  27   1.0000      -5.573740      -151.6692 
  28   1.0000      -5.572031      -151.6227 
  29   1.0000      -5.571750      -151.6150 
  30   1.0000      -5.571635      -151.6119 
  31   1.0000      -5.569066      -151.5420 
  32   1.0000      -2.331833       -63.4524 
  33   1.0000      -1.400214       -38.1018 
  34   1.0000      -1.343320       -36.5536 
  35   1.0000      -1.341517       -36.5045 
  36   1.0000      -0.596054       -16.2195 
  37   1.0000      -0.551451       -15.0058 
  38   1.0000      -0.548957       -14.9379 
  39   1.0000      -0.472323       -12.8526 
  40   1.0000      -0.466439       -12.6925 
  41   1.0000      -0.407158       -11.0793 
  42   1.0000      -0.400207       -10.8902 
  43   1.0000      -0.337851        -9.1934 
  44   1.0000      -0.324110        -8.8195 
  45   1.0000      -0.297253        -8.0887 
  46   1.0000      -0.285557        -7.7704 
  47   1.0000      -0.214769        -5.8442 
  48   1.0000      -0.207760        -5.6534 
  49   1.0000      -0.203288        -5.5317 
  50   1.0000      -0.195914        -5.3311 
  51   1.0000      -0.152237        -4.1426 
  52   1.0000      -0.134490        -3.6597 
  53   1.0000      -0.131960        -3.5908 
  54   1.0000      -0.108515        -2.9528 
  55   1.0000      -0.107879        -2.9355 
  56   1.0000      -0.102349        -2.7851 
  57   1.0000      -0.082413        -2.2426 
  58   1.0000      -0.066520        -1.8101 
  59   1.0000      -0.063966        -1.7406 
  60   1.0000      -0.056708        -1.5431 
  61   1.0000      -0.049348        -1.3428 
  62   1.0000      -0.045514        -1.2385 
  63   1.0000      -0.038673        -1.0523 
  64   1.0000       0.002916         0.0794 
  65   1.0000       0.027257         0.7417 
  66   1.0000       0.032369         0.8808 
  67   1.0000       0.045918         1.2495 
  68   1.0000       0.046668         1.2699 
  69   1.0000       0.064894         1.7659 
  70   1.0000       0.067416         1.8345 
  71   1.0000       0.075158         2.0451 
  72   0.0000       0.231518         6.2999 
  73   0.0000       0.249398         6.7865 
  74   0.0000       0.256472         6.9790 
  75   0.0000       0.260322         7.0837 
  76   0.0000       0.263464         7.1692 
  77   0.0000       0.264823         7.2062 
  78   0.0000       0.274370         7.4660 
  79   0.0000       0.281029         7.6472 
  80   0.0000       0.288265         7.8441 
  81   0.0000       0.292796         7.9674 
  82   0.0000       0.295880         8.0513 
  83   0.0000       0.302619         8.2347 
  84   0.0000       0.305302         8.3077 
  85   0.0000       0.310579         8.4513 
  86   0.0000       0.322355         8.7717 
  87   0.0000       0.325794         8.8653 
  88   0.0000       0.328178         8.9302 
  89   0.0000       0.341465         9.2917 
  90   0.0000       0.353187         9.6107 
  91   0.0000       0.357399         9.7253 
  92   0.0000       0.365561         9.9474 
  93   0.0000       0.383457        10.4344 
  94   0.0000       0.389806        10.6072 
  95   0.0000       0.405455        11.0330 
  96   0.0000       0.411979        11.2105 
  97   0.0000       0.417359        11.3569 
  98   0.0000       0.430253        11.7078 
  99   0.0000       0.433992        11.8095 
 100   0.0000       0.438055        11.9201 
 101   0.0000       0.445807        12.1310 
 102   0.0000       0.449160        12.2223 
 103   0.0000       0.456807        12.4303 
 104   0.0000       0.465605        12.6698 
 105   0.0000       0.473572        12.8866 
 106   0.0000       0.478457        13.0195 
 107   0.0000       0.487919        13.2769 
 108   0.0000       0.492292        13.3959 
 109   0.0000       0.502839        13.6830 
 110   0.0000       0.514529        14.0010 
 111   0.0000       0.533512        14.5176 
 112   0.0000       0.539746        14.6872 
 113   0.0000       0.544328        14.8119 
 114   0.0000       0.557447        15.1689 
 115   0.0000       0.562920        15.3178 
 116   0.0000       0.576010        15.6740 
 117   0.0000       0.578918        15.7532 
 118   0.0000       0.582131        15.8406 
 119   0.0000       0.594584        16.1794 
 120   0.0000       0.606871        16.5138 
 121   0.0000       0.610100        16.6017 
 122   0.0000       0.618888        16.8408 
 123   0.0000       0.625419        17.0185 
 124   0.0000       0.635489        17.2925 
 125   0.0000       0.639499        17.4016 
 126   0.0000       0.645159        17.5557 
 127   0.0000       0.649375        17.6704 
 128   0.0000       0.652661        17.7598 
 129   0.0000       0.665942        18.1212 
 130   0.0000       0.668813        18.1993 
 131   0.0000       0.672704        18.3052 
 132   0.0000       0.676860        18.4183 
 133   0.0000       0.679853        18.4997 
 134   0.0000       0.684876        18.6364 
 135   0.0000       0.686826        18.6895 
 136   0.0000       0.691423        18.8146 
 137   0.0000       0.703276        19.1371 
 138   0.0000       0.707661        19.2564 
 139   0.0000       0.718279        19.5454 
 140   0.0000       0.720915        19.6171 
 141   0.0000       0.733288        19.9538 
 142   0.0000       0.745379        20.2828 
 143   0.0000       0.747529        20.3413 
 144   0.0000       0.758435        20.6381 
 145   0.0000       0.766288        20.8518 
 146   0.0000       0.781805        21.2740 
 147   0.0000       0.800229        21.7753 
 148   0.0000       0.811999        22.0956 
 149   0.0000       0.818677        22.2773 
 150   0.0000       0.828640        22.5484 
 151   0.0000       0.845798        23.0153 
 152   0.0000       0.867283        23.6000 
 153   0.0000       0.875002        23.8100 
 154   0.0000       0.898334        24.4449 
 155   0.0000       0.914084        24.8735 
 156   0.0000       0.921761        25.0824 
 157   0.0000       0.967044        26.3146 
 158   0.0000       0.988589        26.9009 
 159   0.0000       0.993834        27.0436 
 160   0.0000       1.000500        27.2250 
 161   0.0000       1.009357        27.4660 
 162   0.0000       1.013753        27.5856 
 163   0.0000       1.028488        27.9866 
 164   0.0000       1.042849        28.3774 
 165   0.0000       1.047794        28.5119 
 166   0.0000       1.069971        29.1154 
 167   0.0000       1.078629        29.3510 
 168   0.0000       1.089058        29.6348 
 169   0.0000       1.119703        30.4687 
 170   0.0000       1.143336        31.1118 
 171   0.0000       1.160160        31.5696 
 172   0.0000       1.162984        31.6464 
 173   0.0000       1.176641        32.0180 
 174   0.0000       1.180385        32.1199 
 175   0.0000       1.200596        32.6699 
 176   0.0000       1.267449        34.4890 
 177   0.0000       1.282810        34.9070 
 178   0.0000       1.295412        35.2500 
 179   0.0000       1.307034        35.5662 
 180   0.0000       1.327693        36.1284 
 181   0.0000       1.350760        36.7560 
 182   0.0000       1.374694        37.4073 
 183   0.0000       1.393008        37.9057 
 184   0.0000       1.432900        38.9912 
 185   0.0000       1.442999        39.2660 
 186   0.0000       1.454117        39.5685 
 187   0.0000       1.458037        39.6752 
 188   0.0000       1.483629        40.3716 
 189   0.0000       1.525942        41.5230 
 190   0.0000       1.532854        41.7111 
 191   0.0000       1.536581        41.8125 
 192   0.0000       1.554089        42.2889 
 193   0.0000       1.556667        42.3591 
 194   0.0000       1.568742        42.6876 
 195   0.0000       1.575570        42.8735 
 196   0.0000       1.584268        43.1101 
 197   0.0000       1.593603        43.3641 
 198   0.0000       1.622236        44.1433 
 199   0.0000       1.630462        44.3671 
 200   0.0000       1.634933        44.4888 
 201   0.0000       1.637690        44.5638 
 202   0.0000       1.646303        44.7982 
 203   0.0000       1.654541        45.0223 
 204   0.0000       1.692648        46.0593 
 205   0.0000       1.699923        46.2572 
 206   0.0000       1.700820        46.2817 
 207   0.0000       1.718800        46.7709 
 208   0.0000       1.721624        46.8478 
 209   0.0000       1.739792        47.3422 
 210   0.0000       1.745926        47.5091 
 211   0.0000       1.748361        47.5753 
 212   0.0000       1.779682        48.4276 
 213   0.0000       1.798350        48.9356 
 214   0.0000       1.806519        49.1579 
 215   0.0000       1.847800        50.2812 
 216   0.0000       1.854531        50.4643 
 217   0.0000       1.873157        50.9712 
 218   0.0000       1.883629        51.2562 
 219   0.0000       1.900357        51.7113 
 220   0.0000       1.917303        52.1725 
 221   0.0000       1.933568        52.6151 
 222   0.0000       1.940795        52.8117 
 223   0.0000       1.945434        52.9379 
 224   0.0000       1.988492        54.1096 
[...]
Average number of points per batch           ...       59
Average number of grid points per atom       ...      425

Memory available               ... 914.0 MB
Memory needed per perturbation ...  10.7 MB
Perturbations treated per batch... 3
Number of batches              ... 1
     CP-SCF ITERATION   0:   4.1970e-02 (   1.3 sec   0/  3 done)
     CP-SCF ITERATION   1:   2.7724e-03 (   1.4 sec   0/  3 done)
     CP-SCF ITERATION   2:   9.3075e-04 (   1.4 sec   3/  3 done)
                    *** THE CP-SCF HAS CONVERGED ***

Forming final perturbed densities           ... done
Transforming perturbed density to AO basis  ... done

 Raw HFC matrix (all values in MHz): 
 -----------------------------------
                -2.0747              -0.4192               0.9339
                -0.4183              -2.1678              -1.0399
                 0.9383              -1.0305              -0.1541

 A(FC)          -1.4692              -1.4692              -1.4692
 A(SD)           2.1457              -0.9938              -1.1519
 A(ORB+DIA)     -0.0098               0.0075               0.0133    A(PC) =   0.0037
 A(ORB)         -0.0103               0.0078               0.0135    A(PC) =   0.0037
 A(DIA)          0.0005              -0.0003              -0.0002    A(PC) =  -0.0000
             ----------           ----------           ----------
 A(Tot)          0.6666              -2.4555              -2.6078    A(iso)=   -1.4656
 Orientation: 
  X           0.3494422           -0.9275052           -0.1327566
  Y          -0.3683661           -0.0057183           -0.9296632
  Z           0.8615083            0.3737666           -0.3436596

Notes:  (1) The A matrix conforms to the "SAI" spin Hamiltonian convention.
        (2) Tensor is right-handed.

 Raw EFG matrix (all values in a.u.**-3):
 -----------------------------------
             0.0731      -0.0515       0.2133
            -0.0515      -0.1367      -0.0524
             0.2133      -0.0524       0.0636

 V(El)       0.5842       0.7973      -1.3814
 V(Nuc)     -0.7287      -0.9469       1.6757
         ----------   ----------   ----------
 V(Tot)     -0.1446      -0.1497       0.2942 
 Orientation: 
  X      -0.7046378   -0.0854076   -0.7044083
  Y      -0.2824006    0.9444752    0.1679775
  Z       0.6509497    0.3172886   -0.6896321

Note: Tensor is right-handed


 Quadrupole tensor eigenvalues (in MHz;Q= 0.0029 I=  1.0)
  e**2qQ            =     0.197576 MHz 
  e**2qQ/(4I*(2I-1))=     0.049394 MHz 
  eta               =     0.017333
  NOTE: the diagonal representation of the SH term I*Q*I = e**2qQ/(4I(2I-1))*[-(1-eta),-(1+eta),2]

 RHO(0)=      0.447995368 a.u.**-3

 -----------------------------------------------------------
 Nucleus  23H : A:ISTP=    1 I=  0.5 P=533.5514 MHz/au**3
                Q:ISTP=    2 I=  1.0 Q=  0.0029 barn     
 -----------------------------------------------------------
 Solving for nuclear perturbation:
Forming RHS of the CP-SCF equations         ... 
Calc. nucleus orbit integrals (SHARK)       ... done

------------------------------------------------------------------------------
                           ORCA CP-SCF CALCULATION
------------------------------------------------------------------------------

Input orbitals are from        ... input_26.gbw
Input Perturbation             ... input_26.pin.tmp
Wavefunction output            ... input_26.pout.tmp
Perturbation mode              ... Imaginary perturbation
Solver                         ... POPLE
Max. number of iterations      ... 64
Convergence tolerance          ... 1.000e-03
Integral handling              ... Direct
DFT GridXC                     ... 1
COSX GridX                     ... 1
COSX IntAccX                   ... 3.067
COSX Algorithm                 ... Auto
Number of perturbations        ... 3
Number of operators            ... 2
Orbital ranges used for CP-SCF:
 Operator 0:  Orbitals   0... 72  to  73...352
 Operator 1:  Orbitals   0... 71  to  72...352
Variables per perturbation     ... 40672
DFT calculation                         ... on
XC functional terms                     ... off
Hybrid DFT                              ... on
   Exchange mixing (SCF)                ...  0.200
   Exchange mixing (CP-SCF)             ...  0.200
   GGA exch. scaling(SCF)               ...  0.720
   GGA exch. scaling (CP-SCF)           ...  0.720
   GGA corr. scaling (SCF)              ...  0.810
   GGA corr. scaling (CP-SCF)           ...  0.810

CP-SCF GRID
-----------

General Integration Accuracy     IntAcc      ... 3.467
Radial Grid Type                 RadialGrid  ... OptM3 with GC (2021)
Angular Grid (max. ang.)         AngularGrid ... 1 (Lebedev-50)
Angular grid pruning method      GridPruning ... 4 (adaptive)
Weight generation scheme         WeightScheme... Becke
Basis function cutoff            BFCut       ... 1.0000e-10
Integration weight cutoff        WCut        ... 1.0000e-14
Angular grids for H and He will be reduced by one unit
Partially contracted basis set               ... off
Rotationally invariant grid construction     ... off

Total number of grid points                  ...    23553
Total number of batches                      ...      380
Average number of points per batch           ...       61
Average number of grid points per atom       ...      981

CP-SCF GRIDX
------------

General Integration Accuracy     IntAcc      ... 3.067
Radial Grid Type                 RadialGrid  ... OptM3 with GC (2021)
Angular Grid (max. ang.)         AngularGrid ... 1 (Lebedev-50)
Angular grid pruning method      GridPruning ... 4 (adaptive)
Weight generation scheme         WeightScheme... Becke
Basis function cutoff            BFCut       ... 1.0000e-10
Integration weight cutoff        WCut        ... 1.0000e-14
Angular grids for H and He will be reduced by one unit
Partially contracted basis set               ... on
Rotationally invariant grid construction     ... off

Total number of grid points                  ...    10204
Total number of batches                      ...      171
Average number of points per batch           ...       59
Average number of grid points per atom       ...      425

Memory available               ... 913.1 MB
Memory needed per perturbation ...  10.7 MB
Perturbations treated per batch... 3
Number of batches              ... 1
     CP-SCF ITERATION   0:   4.8924e-02 (   1.4 sec   0/  3 done)
     CP-SCF ITERATION   1:   6.1689e-03 (   1.4 sec   0/  3 done)
     CP-SCF ITERATION   2:   1.3667e-03 (   1.4 sec   0/  3 done)
     CP-SCF ITERATION   3:   2.0063e-04 (   1.4 sec   3/  3 done)
                    *** THE CP-SCF HAS CONVERGED ***

Forming final perturbed densities           ... done
Transforming perturbed density to AO basis  ... done

 Raw HFC matrix (all values in MHz): 
 -----------------------------------
                -1.5864              -1.1144               1.2367
                -1.1139               1.3460              -3.1585
                 1.2508              -3.1724               1.6048

 A(FC)           0.4497               0.4497               0.4497
 A(SD)          -2.1713              -2.4854               4.6567
 A(ORB+DIA)      0.0386               0.0208              -0.0439    A(PC) =   0.0052
 A(ORB)          0.0387               0.0211              -0.0451    A(PC) =   0.0049
 A(DIA)         -0.0001              -0.0003               0.0012    A(PC) =   0.0003
             ----------           ----------           ----------
 A(Tot)         -1.6830              -2.0149               5.0624    A(iso)=    0.4548
 Orientation: 
  X           0.1647297            0.9558907           -0.2431814
  Y           0.7409932            0.0427914            0.6701478
  Z           0.6509941           -0.2905890           -0.7012594

Notes:  (1) The A matrix conforms to the "SAI" spin Hamiltonian convention.
        (2) Tensor is right-handed.

 Raw EFG matrix (all values in a.u.**-3):
 -----------------------------------
            -0.1459      -0.0195      -0.0204
            -0.0195       0.0943       0.2154
            -0.0204       0.2154       0.0516

 V(El)       0.4157       0.5696      -0.9852
 V(Nuc)     -0.5584      -0.7181       1.2764
         ----------   ----------   ----------
 V(Tot)     -0.1427      -0.1485       0.2912 
 Orientation: 
  X       0.3699448    0.9268238    0.0643312
  Y       0.6414100   -0.2046999   -0.7393856
  Z      -0.6721116    0.3147946   -0.6702018

Note: Tensor is right-handed


 Quadrupole tensor eigenvalues (in MHz;Q= 0.0029 I=  1.0)
  e**2qQ            =     0.195523 MHz 
  e**2qQ/(4I*(2I-1))=     0.048881 MHz 
  eta               =     0.019869
  NOTE: the diagonal representation of the SH term I*Q*I = e**2qQ/(4I(2I-1))*[-(1-eta),-(1+eta),2]

 RHO(0)=      0.445428365 a.u.**-3

 -----------------------------------------------------------
 Nucleus   0V : A:ISTP=   51 I=  3.5 P=140.5173 MHz/au**3
                Q:ISTP=   51 I=  3.5 Q= -0.0430 barn     
 -----------------------------------------------------------
 Solving for nuclear perturbation:
Forming RHS of the CP-SCF equations         ... 
Calc. nucleus orbit integrals (SHARK)       ... done

------------------------------------------------------------------------------
                           ORCA CP-SCF CALCULATION
------------------------------------------------------------------------------

Input orbitals are from        ... input_26.gbw
Input Perturbation             ... input_26.pin.tmp
Wavefunction output            ... input_26.pout.tmp
Perturbation mode              ... Imaginary perturbation
Solver                         ... POPLE
Max. number of iterations      ... 64
Convergence tolerance          ... 1.000e-03
Integral handling              ... Direct
DFT GridXC                     ... 1
COSX GridX                     ... 1
COSX IntAccX                   ... 3.067
COSX Algorithm                 ... Auto
Number of perturbations        ... 3
Number of operators            ... 2
Orbital ranges used for CP-SCF:
 Operator 0:  Orbitals   0... 72  to  73...352
 Operator 1:  Orbitals   0... 71  to  72...352
Variables per perturbation     ... 40672
DFT calculation                         ... on
XC functional terms                     ... off
Hybrid DFT                              ... on
   Exchange mixing (SCF)                ...  0.200
   Exchange mixing (CP-SCF)             ...  0.200
   GGA exch. scaling(SCF)               ...  0.720
   GGA exch. scaling (CP-SCF)           ...  0.720
   GGA corr. scaling (SCF)              ...  0.810
   GGA corr. scaling (CP-SCF)           ...  0.810

CP-SCF GRID
-----------

General Integration Accuracy     IntAcc      ... 3.467
Radial Grid Type                 RadialGrid  ... OptM3 with GC (2021)
Angular Grid (max. ang.)         AngularGrid ... 1 (Lebedev-50)
Angular grid pruning method      GridPruning ... 4 (adaptive)
Weight generation scheme         WeightScheme... Becke
Basis function cutoff            BFCut       ... 1.0000e-10
Integration weight cutoff        WCut        ... 1.0000e-14
Angular grids for H and He will be reduced by one unit
Partially contracted basis set               ... off
Rotationally invariant grid construction     ... off

Total number of grid points                  ...    23553
Total number of batches                      ...      380
Average number of points per batch           ...       61
Average number of grid points per atom       ...      981

CP-SCF GRIDX
------------

General Integration Accuracy     IntAcc      ... 3.067
Radial Grid Type                 RadialGrid  ... OptM3 with GC (2021)
Angular Grid (max. ang.)         AngularGrid ... 1 (Lebedev-50)
Angular grid pruning method      GridPruning ... 4 (adaptive)
Weight generation scheme         WeightScheme... Becke
Basis function cutoff            BFCut       ... 1.0000e-10
Integration weight cutoff        WCut        ... 1.0000e-14
Angular grids for H and He will be reduced by one unit
Partially contracted basis set               ... on
Rotationally invariant grid construction     ... off

Total number of grid points                  ...    10204
Total number of batches                      ...      171
Average number of points per batch           ...       59
Average number of grid points per atom       ...      425

Memory available               ... 912.2 MB
Memory needed per perturbation ...  10.7 MB
Perturbations treated per batch... 3
Number of batches              ... 1
     CP-SCF ITERATION   0:   1.3708e+01 (   1.4 sec   0/  3 done)
     CP-SCF ITERATION   1:   2.5534e+00 (   1.4 sec   0/  3 done)
     CP-SCF ITERATION   2:   4.5234e-01 (   1.4 sec   0/  3 done)
     CP-SCF ITERATION   3:   8.8790e-02 (   1.4 sec   0/  3 done)
     CP-SCF ITERATION   4:   2.5924e-02 (   1.4 sec   0/  3 done)
     CP-SCF ITERATION   5:   4.7202e-03 (   1.4 sec   0/  3 done)
     CP-SCF ITERATION   6:   9.1655e-04 (   1.4 sec   3/  3 done)
                    *** THE CP-SCF HAS CONVERGED ***

Forming final perturbed densities           ... done
Transforming perturbed density to AO basis  ... done

 Raw HFC matrix (all values in MHz): 
 -----------------------------------
              -110.3782              80.6104             -19.3446
                79.2956            -352.6633              54.4349
               -18.9640              52.6981             -89.3366

 A(FC)        -172.0926            -172.0926            -172.0926
 A(SD)         102.7274              93.2230            -195.9504
 A(ORB+DIA)     -8.2000              -8.4509             -19.4494    A(PC) = -12.0335
 A(ORB)         -8.2002              -8.4508             -19.4494    A(PC) = -12.0335
 A(DIA)          0.0002              -0.0001               0.0000    A(PC) =   0.0000
             ----------           ----------           ----------
 A(Tot)        -77.5652             -87.3206            -387.4924    A(iso)= -184.1260
 Orientation: 
  X          -0.3430002            0.8948115           -0.2857678
  Y           0.0844731            0.3323743            0.9393570
  Z           0.9355293            0.2980600           -0.1895920

Notes:  (1) The A matrix conforms to the "SAI" spin Hamiltonian convention.
        (2) Tensor is right-handed.

 Raw EFG matrix (all values in a.u.**-3):
 -----------------------------------
            -0.1524      -0.1954       0.0961
            -0.1954       0.3466      -0.0903
             0.0961      -0.0903      -0.1942

 V(El)      -0.1052      -0.2956       0.4007
 V(Nuc)     -0.0523       0.0172       0.0351
         ----------   ----------   ----------
 V(Tot)     -0.1575      -0.2783       0.4358 
 Orientation: 
  X       0.6096413    0.7175728   -0.3367891
  Y       0.3625544    0.1254115    0.9234859
  Z       0.7049056   -0.6850995   -0.1837031

Note: Tensor is right-handed


 Quadrupole tensor eigenvalues (in MHz;Q=-0.0430 I=  3.5)
  e**2qQ            =    -4.403172 MHz 
  e**2qQ/(4I*(2I-1))=    -0.052419 MHz 
  eta               =     0.277232
  NOTE: the diagonal representation of the SH term I*Q*I = e**2qQ/(4I(2I-1))*[-(1-eta),-(1+eta),2]

 RHO(0)=   8115.164695056 a.u.**-3


--------------------------------------------------------------------------------
----------------------------------------------------------------------------
                           ORCA EULER ANGLE PROGRAM
----------------------------------------------------------------------------

Only g-tensor available        -->  using g-tensor as reference tensor

Reference tensor               ...  g

g-tensor ordering              ...  |g_min> --> |gx>
                                    |g_mid> --> |gy>
                                    |g_max> --> |gz>

A- and EFG-tensor ordering     ...  the axes |Ax>, |Qx>, |Ay>, etc. are assigned
                                    such that the Euler rotation is minimal. You
                                    can find the respective eigenvalues as Ax,
                                    EFGx, Ay, etc. in the tables below.
                                    The relation of |Ax>, |Ay>,  etc. to Amin, Amid, etc.
                                    (as printed in the ORCA EPR/NMR CALCULATION Output)
                                    is obtained in the detailed printout.

Euler rotation around          ...  z - y - z
   First rotation              -->  by alpha around z
   Second rotation             -->  by beta around y'
   Third rotation              -->  by gamma around z''
   Positive / Negative angle   -->  clockwise / counterclockwise rotation

Plot EFG-tensors                    (-)
Plot HFC-tensors                    (-)
Detailed Printout                   (-)

-------------------------------------------------------------------------
          Euler rotation of hyperfine tensor to g-tensor
-------------------------------------------------------------------------

-------------------------------------------------------------------
 Atom  |   Alpha    Beta    Gamma   |   Ax       Ay       Az 
       |          [degrees]         |           [MHz]         
-------------------------------------------------------------------
  9H      118.4     22.9   -112.4      -2.03     2.70    -2.23
 10H       23.9     29.7    -41.8      -1.79     1.29    -1.74
 11H      -87.7     35.3     90.0      -2.85    -2.52     5.65
 12H       96.7     45.4   -120.1      -0.54     1.94    -0.45
 13H     -139.2     31.0    164.0       2.52    -2.72    -2.34
 14H      -42.9     44.6     17.6      -3.38    -3.22    -0.32
 18H      -38.2     25.6     40.3      -2.39    -2.19     1.06
 19H     -158.2     41.7   -162.5       3.11    -3.66    -3.26
 20H      -92.7     36.0    109.8      -0.09    -0.11     2.33
 21H       85.9     37.8    -91.7      -0.11     2.29    -0.05
 22H       37.2     34.9     -9.0      -2.61     0.67    -2.46
 23H      -24.5     34.6    -18.6       5.06    -1.68    -2.01
  0V       56.3     47.3    -76.0    -387.49   -77.57   -87.32
-------------------------------------------------------------------


-------------------------------------------------------------------------------
    Euler rotation of Electric Field Gradient (EFG) tensor to g-tensor
-------------------------------------------------------------------------------

-------------------------------------------------------------------
 Atom  |   Alpha    Beta    Gamma  |   EFGx     EFGy     EFGz
       |          [degrees]        |         [a.u.**-3]       
-------------------------------------------------------------------
  9H       79.7     38.3   -100.8      0.24    -0.13    -0.12
 10H      -24.7     12.4    -10.4     -0.13     0.24    -0.12
 11H      -77.3     36.3    105.7      0.26    -0.13    -0.13
 12H      -45.6     39.0     79.5     -0.14    -0.13     0.28
 13H     -167.7     41.4   -150.2     -0.13    -0.11     0.24
 14H       37.8     37.9     -8.7     -0.13    -0.12     0.25
 18H       30.1     22.2     -9.4     -0.15    -0.14     0.29
 19H       14.2     39.2     -3.8      0.29    -0.14    -0.15
 20H      156.7     38.1   -176.1     -0.14    -0.15     0.28
 21H      168.8     24.8    159.4     -0.14     0.28    -0.14
 22H      -15.6     19.6     39.9     -0.15     0.29    -0.14
 23H      -80.5     23.5    123.1      0.29    -0.15    -0.14
  0V      -40.9     28.5     33.3      0.44    -0.16    -0.28
-------------------------------------------------------------------


Maximum memory used throughout the entire EPRNMR-calculation: 146.2 MB

Timings for individual modules:

Sum of individual times         ...      575.283 sec (=   9.588 min)
GTO integral calculation        ...        1.223 sec (=   0.020 min)   0.2 %
Spin-Orbit-Coupling Matrices    ...        3.584 sec (=   0.060 min)   0.6 %
SCF iterations                  ...       55.262 sec (=   0.921 min)   9.6 %
EPR/NMR calculation             ...      515.214 sec (=   8.587 min)  89.6 %
                             ****ORCA TERMINATED NORMALLY****
TOTAL RUN TIME: 0 days 0 hours 9 minutes 36 seconds 381 msec
