
                                 *****************
                                 * O   R   C   A *
                                 *****************

                                            #,                                       
                                            ###                                      
                                            ####                                     
                                            #####                                    
                                            ######                                   
                                           ########,                                 
                                     ,,################,,,,,                         
                               ,,#################################,,                 
                          ,,##########################################,,             
                       ,#########################################, ''#####,          
                    ,#############################################,,   '####,        
                  ,##################################################,,,,####,       
                ,###########''''           ''''###############################       
              ,#####''   ,,,,##########,,,,          '''####'''          '####       
            ,##' ,,,,###########################,,,                        '##       
           ' ,,###''''                  '''############,,,                           
         ,,##''                                '''############,,,,        ,,,,,,###''
      ,#''                                            '''#######################'''  
     '                                                          ''''####''''         
             ,#######,   #######,   ,#######,      ##                                
            ,#'     '#,  ##    ##  ,#'     '#,    #''#        ######   ,####,        
            ##       ##  ##   ,#'  ##            #'  '#       #        #'  '#        
            ##       ##  #######   ##           ,######,      #####,   #    #        
            '#,     ,#'  ##    ##  '#,     ,#' ,#      #,         ##   #,  ,#        
             '#######'   ##     ##  '#######'  #'      '#     #####' # '####'        



                  #######################################################
                  #                        -***-                        #
                  #          Department of theory and spectroscopy      #
                  #    Directorship and core code : Frank Neese         #
                  #        Max Planck Institute fuer Kohlenforschung    #
                  #                Kaiser Wilhelm Platz 1               #
                  #                 D-45470 Muelheim/Ruhr               #
                  #                      Germany                        #
                  #                                                     #
                  #                  All rights reserved                #
                  #                        -***-                        #
                  #######################################################


                         Program Version 5.0.4 -  RELEASE  -


 With contributions from (in alphabetic order):
   Daniel Aravena         : Magnetic Suceptibility
   Michael Atanasov       : Ab Initio Ligand Field Theory (pilot matlab implementation)
   Alexander A. Auer      : GIAO ZORA, VPT2 properties, NMR spectrum
   Ute Becker             : Parallelization
   Giovanni Bistoni       : ED, misc. LED, open-shell LED, HFLD
   Martin Brehm           : Molecular dynamics
   Dmytro Bykov           : SCF Hessian
   Vijay G. Chilkuri      : MRCI spin determinant printing, contributions to CSF-ICE
   Dipayan Datta          : RHF DLPNO-CCSD density
   Achintya Kumar Dutta   : EOM-CC, STEOM-CC
   Dmitry Ganyushin       : Spin-Orbit,Spin-Spin,Magnetic field MRCI
   Miquel Garcia          : C-PCM and meta-GGA Hessian, CC/C-PCM, Gaussian charge scheme
   Yang Guo               : DLPNO-NEVPT2, F12-NEVPT2, CIM, IAO-localization
   Andreas Hansen         : Spin unrestricted coupled pair/coupled cluster methods
   Benjamin Helmich-Paris : MC-RPA, TRAH-SCF, COSX integrals
   Lee Huntington         : MR-EOM, pCC
   Robert Izsak           : Overlap fitted RIJCOSX, COSX-SCS-MP3, EOM
   Marcus Kettner         : VPT2
   Christian Kollmar      : KDIIS, OOCD, Brueckner-CCSD(T), CCSD density, CASPT2, CASPT2-K
   Simone Kossmann        : Meta GGA functionals, TD-DFT gradient, OOMP2, MP2 Hessian
   Martin Krupicka        : Initial AUTO-CI
   Lucas Lang             : DCDCAS
   Marvin Lechner         : AUTO-CI (C++ implementation), FIC-MRCC
   Dagmar Lenk            : GEPOL surface, SMD
   Dimitrios Liakos       : Extrapolation schemes; Compound Job, initial MDCI parallelization
   Dimitrios Manganas     : Further ROCIS development; embedding schemes
   Dimitrios Pantazis     : SARC Basis sets
   Anastasios Papadopoulos: AUTO-CI, single reference methods and gradients
   Taras Petrenko         : DFT Hessian,TD-DFT gradient, ASA, ECA, R-Raman, ABS, FL, XAS/XES, NRVS
   Peter Pinski           : DLPNO-MP2, DLPNO-MP2 Gradient
   Christoph Reimann      : Effective Core Potentials
   Marius Retegan         : Local ZFS, SOC
   Christoph Riplinger    : Optimizer, TS searches, QM/MM, DLPNO-CCSD(T), (RO)-DLPNO pert. Triples
   Tobias Risthaus        : Range-separated hybrids, TD-DFT gradient, RPA, STAB
   Michael Roemelt        : Original ROCIS implementation
   Masaaki Saitow         : Open-shell DLPNO-CCSD energy and density
   Barbara Sandhoefer     : DKH picture change effects
   Avijit Sen             : IP-ROCIS
   Kantharuban Sivalingam : CASSCF convergence, NEVPT2, FIC-MRCI
   Bernardo de Souza      : ESD, SOC TD-DFT
   Georgi Stoychev        : AutoAux, RI-MP2 NMR, DLPNO-MP2 response
   Willem Van den Heuvel  : Paramagnetic NMR
   Boris Wezisla          : Elementary symmetry handling
   Frank Wennmohs         : Technical directorship


 We gratefully acknowledge several colleagues who have allowed us to
 interface, adapt or use parts of their codes:
   Stefan Grimme, W. Hujo, H. Kruse, P. Pracht,  : VdW corrections, initial TS optimization,
                  C. Bannwarth, S. Ehlert          DFT functionals, gCP, sTDA/sTD-DF
   Ed Valeev, F. Pavosevic, A. Kumar             : LibInt (2-el integral package), F12 methods
   Garnet Chan, S. Sharma, J. Yang, R. Olivares  : DMRG
   Ulf Ekstrom                                   : XCFun DFT Library
   Mihaly Kallay                                 : mrcc  (arbitrary order and MRCC methods)
   Jiri Pittner, Ondrej Demel                    : Mk-CCSD
   Frank Weinhold                                : gennbo (NPA and NBO analysis)
   Christopher J. Cramer and Donald G. Truhlar   : smd solvation model
   Lars Goerigk                                  : TD-DFT with DH, B97 family of functionals
   V. Asgeirsson, H. Jonsson                     : NEB implementation
   FAccTs GmbH                                   : IRC, NEB, NEB-TS, DLPNO-Multilevel, CI-OPT
                                                   MM, QMMM, 2- and 3-layer-ONIOM, Crystal-QMMM,
                                                   LR-CPCM, SF, NACMEs, symmetry and pop. for TD-DFT,
                                                   nearIR, NL-DFT gradient (VV10), updates on ESD,
                                                   ML-optimized integration grids
   S Lehtola, MJT Oliveira, MAL Marques          : LibXC Library
   Liviu Ungur et al                             : ANISO software


 Your calculation uses the libint2 library for the computation of 2-el integrals
 For citations please refer to: http://libint.valeyev.net

 Your ORCA version has been built with support for libXC version: 5.1.0
 For citations please refer to: https://tddft.org/programs/libxc/

 This ORCA versions uses:
   CBLAS   interface :  Fast vector & matrix operations
   LAPACKE interface :  Fast linear algebra routines
   SCALAPACK package :  Parallel linear algebra routines
   Shared memory     :  Shared parallel matrices
   BLAS/LAPACK       :  OpenBLAS 0.3.15  USE64BITINT DYNAMIC_ARCH NO_AFFINITY Prescott SINGLE_THREADED
        Core in use  :  Prescott
   Copyright (c) 2011-2014, The OpenBLAS Project


================================================================================

----- Orbital basis set information -----
Your calculation utilizes the basis: TZVP 

The basis set includes element-specific modifications.

Your calculation utilizes the basis: CP(PPP) 

----- AuxJ basis set information -----
Your calculation utilizes the auxiliary basis: def2/J
   F. Weigend, Phys. Chem. Chem. Phys. 8, 1057 (2006).

================================================================================
                                        WARNINGS
                       Please study these warnings very carefully!
================================================================================


WARNING: your system is open-shell and RHF/RKS was chosen
  ===> : WILL SWITCH to UHF/UKS


INFO   : the flag for use of the SHARK integral package has been found!

================================================================================
                                       INPUT FILE
================================================================================
NAME = input_3.inp
|  1> ! nofrozencore ReducedPop printbasis
|  2> ! B3LYP TZVP
|  3> 
|  4> %basis
|  5> newgto V "CP(PPP)" end
|  6> end
|  7> 
|  8> %pal
|  9> nprocs 8
| 10> end
| 11> 
| 12> % sym SymThresh 1e-2 end
| 13> * xyz -2 2 
| 14> V 0.051388233961951205 0.1628964145648255 -0.4627933595085352
| 15> S -2.3034821368283143 -0.7162772542191045 -0.7827911741340742
| 16> S -0.9777701011313356 1.928892162836083 0.8961063810112933
| 17> S 0.8151091268743134 -2.173701688034284 -0.11624967865374605
| 18> S 2.1837223132863444 0.4748174327635237 0.7768585654468853
| 19> O 0.34907194380879886 0.7303883055913392 -1.9315859431397195
| 20> C 0.4051978653675734 2.9845950322404704 1.5581012207934586
| 21> C 2.6716989370064446 2.250836273943574 0.5750699382965865
| 22> C 1.5199062968650965 3.2680216937722326 0.5410950816343618
| 23> H 3.271141424239683 2.3559285684312803 -0.340962109916214
| 24> H 3.334992158813163 2.4886035716325074 1.422389092305845
| 25> H 1.0754869070534114 3.2857407114098254 -0.45933422233787224
| 26> H 1.9463627981913163 4.2724763520910765 0.7228581497565011
| 27> H 0.8361126807014492 2.49850171236746 2.443343080520848
| 28> H -0.05651354259128658 3.9297854079340704 1.8787837406208396
| 29> C -2.3548034478115016 -2.124293576589336 0.41891627013802324
| 30> C -0.45409905124445316 -3.269154419485405 -0.8987333090471998
| 31> C -1.753793239266309 -3.4382368928120317 -0.10590176752090537
| 32> H 0.00838080736027127 -4.253931303095207 -1.0522580149961822
| 33> H -0.6963035182572551 -2.854469823595031 -1.8787493465273433
| 34> H -1.5756518173026608 -4.106684099538963 0.7519389086851908
| 35> H -2.489945304302219 -3.9402948168953436 -0.7571633054797513
| 36> H -3.4007827146516227 -2.292650972814225 0.7041324301342238
| 37> H -1.8175934400630518 -1.8167943180782993 1.31799477025638
| 38> * 
| 39> 
| 40> % eprnmr
| 41> gtensor true
| 42> Nuclei = all H {aiso,adip,aorb,fgrad,rho}
| 43> Nuclei = all V {aiso,adip,aorb,fgrad,rho}
| 44> end
| 45> 
| 46>                          ****END OF INPUT****
================================================================================

------------------------------------------------------------------------------
                            SYMMETRY HANDLING SETUP
------------------------------------------------------------------------------

------------------
SYMMETRY DETECTION
------------------
The point group will now be determined using a tolerance of 1.0000e-02.
Splitting atom subsets according to nuclear charge, mass and basis set.
Splitting atom subsets according to distance from the molecule's center.
Identifying relative distance patterns of the atoms.
Splitting atom subsets according to atoms' relative distance patterns.
Bring atoms of each subset into input order.
The molecule is neither linear nor planar.
There is at least one atom subset not centered around the molecule's center.
The molecule does not have a center of inversion.
Analyzing the first atom subset for its symmetry.
The subset is an off-center atom pair.
Testing point group C2v.
Test failed.
Testing point group C2.
Test failed.
Testing point group Cs.
Test failed.
Testing point group Cs.
Test failed.
No testing is needed for point group C1.
This point group has been found:    C1
Largest non-degenerate subgroup:    C1


Mass-centered symmetry-perfected Cartesians (point group C1):

Atom          Symmetry-perfected Cartesians (x, y, z; au)
  0       0.097130366879    0.307735050901   -0.875976113791
  1      -4.352929714800   -1.353662407255   -1.480684346886
  2      -1.847697034890    3.644983368803    1.691972239248
  3       1.540353697237   -4.107795448051   -0.221103463534
  4       4.126657802829    0.897180350711    1.466626525763
  5       0.659671053019    1.380139308163   -3.651591844388
  6       0.765733673779    5.639972670773    2.942961188506
  7       5.048799981416    4.253369569225    1.085301283509
  8       2.872227328483    6.175571440119    1.021098108978
  9       6.181582115323    4.451965224592   -0.645748417508
 10       6.302242517117    4.702684645460    2.686502432612
 11       2.032396393134    6.209055530816   -0.869439291879
 12       3.678113324019    8.073715658283    1.364580528990
 13       1.580044661810    4.721389420684    4.615825865674
 14      -0.106774440170    7.426123625252    3.548963326915
 15      -4.449912937392   -4.014427648626    0.790213615882
 16      -0.858102166340   -6.177901103150   -1.699783229254
 17      -3.314168239551   -6.497420671783   -0.201548745435
 18       0.015858108877   -8.038859716189   -1.989902878289
 19      -1.315802277407   -5.394260784961   -3.551745146943
 20      -2.977529738932   -7.760602827481    1.419535199132
 21      -4.705294035389   -7.446172651665   -1.432254693734
 22      -6.426527293480   -4.332577020111    1.329194047244
 23      -3.434733146346   -3.433338263656    2.489225754003


------------------
SYMMETRY REDUCTION
------------------
ORCA supports only abelian point groups.
It is now checked, if the determined point group is supported:
Point Group ( C1    ) is          ... supported

The point group is C1 - hence turning off symmetry
If this is a round-off problem, please increase the symmetry
        detection tolerance (%method SymThresh)

Storing the symmetry object:
Symmetry file                     ... input_3.sym.tmp
Writing symmetry information      ... done

                       ****************************
                       * Single Point Calculation *
                       ****************************

---------------------------------
CARTESIAN COORDINATES (ANGSTROEM)
---------------------------------
  V      0.051399    0.162846   -0.463547
  S     -2.303471   -0.716327   -0.783544
  S     -0.977759    1.928842    0.895353
  S      0.815120   -2.173752   -0.117003
  S      2.183733    0.474767    0.776105
  O      0.349083    0.730338   -1.932339
  C      0.405209    2.984545    1.557348
  C      2.671710    2.250786    0.574317
  C      1.519917    3.267972    0.540342
  H      3.271152    2.355879   -0.341715
  H      3.335003    2.488554    1.421636
  H      1.075498    3.285691   -0.460087
  H      1.946374    4.272426    0.722105
  H      0.836124    2.498452    2.442590
  H     -0.056503    3.929735    1.878031
  C     -2.354793   -2.124344    0.418163
  C     -0.454088   -3.269204   -0.899487
  C     -1.753782   -3.438287   -0.106655
  H      0.008392   -4.253981   -1.053011
  H     -0.696293   -2.854520   -1.879503
  H     -1.575641   -4.106734    0.751186
  H     -2.489934   -3.940345   -0.757917
  H     -3.400772   -2.292701    0.703379
  H     -1.817582   -1.816844    1.317242

----------------------------
CARTESIAN COORDINATES (A.U.)
----------------------------
  NO LB      ZA    FRAG     MASS         X           Y           Z
   0 V    23.0000    0    50.940    0.097130    0.307735   -0.875976
   1 S    16.0000    0    32.060   -4.352930   -1.353662   -1.480684
   2 S    16.0000    0    32.060   -1.847697    3.644983    1.691972
   3 S    16.0000    0    32.060    1.540354   -4.107795   -0.221103
   4 S    16.0000    0    32.060    4.126658    0.897180    1.466627
   5 O     8.0000    0    15.999    0.659671    1.380139   -3.651592
   6 C     6.0000    0    12.011    0.765734    5.639973    2.942961
   7 C     6.0000    0    12.011    5.048800    4.253370    1.085301
   8 C     6.0000    0    12.011    2.872227    6.175571    1.021098
   9 H     1.0000    0     1.008    6.181582    4.451965   -0.645748
  10 H     1.0000    0     1.008    6.302243    4.702685    2.686502
  11 H     1.0000    0     1.008    2.032396    6.209056   -0.869439
  12 H     1.0000    0     1.008    3.678113    8.073716    1.364581
  13 H     1.0000    0     1.008    1.580045    4.721389    4.615826
  14 H     1.0000    0     1.008   -0.106774    7.426124    3.548963
  15 C     6.0000    0    12.011   -4.449913   -4.014428    0.790214
  16 C     6.0000    0    12.011   -0.858102   -6.177901   -1.699783
  17 C     6.0000    0    12.011   -3.314168   -6.497421   -0.201549
  18 H     1.0000    0     1.008    0.015858   -8.038860   -1.989903
  19 H     1.0000    0     1.008   -1.315802   -5.394261   -3.551745
  20 H     1.0000    0     1.008   -2.977530   -7.760603    1.419535
  21 H     1.0000    0     1.008   -4.705294   -7.446173   -1.432255
  22 H     1.0000    0     1.008   -6.426527   -4.332577    1.329194
  23 H     1.0000    0     1.008   -3.434733   -3.433338    2.489226

--------------------------------
INTERNAL COORDINATES (ANGSTROEM)
--------------------------------
 V      0   0   0     0.000000000000     0.00000000     0.00000000
 S      1   0   0     2.533921743952     0.00000000     0.00000000
 S      1   2   0     2.454489023481    85.97946753     0.00000000
 S      1   2   3     2.482549660748    88.67993884   137.09768495
 S      1   2   3     2.486137615356   154.63325465    80.56484337
 O      1   2   3     1.602502508959   100.35554751   251.09515047
 C      3   1   2     1.861544013106   107.06257538   177.42124745
 C      5   1   2     1.852857997681   106.96827444   222.96097166
 C      7   3   1     1.535319851629   114.11169239    41.03372967
 H      8   5   1     1.099768338885   109.01753721   271.96058408
 H      8   5   1     1.102016757902   106.35507325   156.95262162
 H      9   7   3     1.094843070889   108.27365239    30.67710871
 H      9   7   3     1.106269461332   109.79537528   147.13760114
 H      7   3   1     1.098010675683   109.09896180   278.44875101
 H      7   3   1     1.099727033889   106.21312720   162.18456348
 C      2   1   3     1.851821973798   101.98256360   258.72874544
 C      4   1   2     1.850185590172   106.69022368    21.70263177
 C     17   4   1     1.531788405232   115.37280376   283.90233270
 H     17   4   1     1.098746087795   107.51843608   161.67328228
 H     17   4   1     1.091355923440   107.88119013    45.45686549
 H     18  17   4     1.102019355617   109.43269216   285.20911329
 H     18  17   4     1.103686374300   108.10310729   169.08996880
 H     16   2   1     1.097162293121   108.16708617   154.89777839
 H     16   2   1     1.091555099748   107.85874687    39.07610799

---------------------------
INTERNAL COORDINATES (A.U.)
---------------------------
 V      0   0   0     0.000000000000     0.00000000     0.00000000
 S      1   0   0     4.788418140858     0.00000000     0.00000000
 S      1   2   0     4.638312053095    85.97946753     0.00000000
 S      1   2   3     4.691338972673    88.67993884   137.09768495
 S      1   2   3     4.698119224263   154.63325465    80.56484337
 O      1   2   3     3.028290870854   100.35554751   251.09515047
 C      3   1   2     3.517808371010   107.06257538   177.42124745
 C      5   1   2     3.501394180663   106.96827444   222.96097166
 C      7   3   1     2.901334047551   114.11169239    41.03372967
 H      8   5   1     2.078260971250   109.01753721   271.96058408
 H      8   5   1     2.082509867426   106.35507325   156.95262162
 H      9   7   3     2.068953563601   108.27365239    30.67710871
 H      9   7   3     2.090546312237   109.79537528   147.13760114
 H      7   3   1     2.074939469162   109.09896180   278.44875101
 H      7   3   1     2.078182916119   106.21312720   162.18456348
 C      2   1   3     3.499436379256   101.98256360   258.72874544
 C      4   1   2     3.496344062353   106.69022368    21.70263177
 C     17   4   1     2.894660581004   115.37280376   283.90233270
 H     17   4   1     2.076329196649   107.51843608   161.67328228
 H     17   4   1     2.062363809935   107.88119013    45.45686549
 H     18  17   4     2.082514776396   109.43269216   285.20911329
 H     18  17   4     2.085664985168   108.10310729   169.08996880
 H     16   2   1     2.073336258463   108.16708617   154.89777839
 H     16   2   1     2.062740198608   107.85874687    39.07610799

---------------------
BASIS SET INFORMATION
---------------------
There are 5 groups of distinct atoms

 Group   1 Type V   : 17s11p5d1f contracted to 17s7p3d1f pattern {11111111111111111/3311111/311/1}
 Group   2 Type S   : 14s9p1d contracted to 5s4p1d pattern {73211/6111/1}
 Group   3 Type O   : 11s6p1d contracted to 5s3p1d pattern {62111/411/1}
 Group   4 Type C   : 11s6p1d contracted to 5s3p1d pattern {62111/411/1}
 Group   5 Type H   : 5s1p contracted to 3s1p pattern {311/1}

Atom   0V    basis set group =>   1
Atom   1S    basis set group =>   2
Atom   2S    basis set group =>   2
Atom   3S    basis set group =>   2
Atom   4S    basis set group =>   2
Atom   5O    basis set group =>   3
Atom   6C    basis set group =>   4
Atom   7C    basis set group =>   4
Atom   8C    basis set group =>   4
Atom   9H    basis set group =>   5
Atom  10H    basis set group =>   5
Atom  11H    basis set group =>   5
Atom  12H    basis set group =>   5
Atom  13H    basis set group =>   5
Atom  14H    basis set group =>   5
Atom  15C    basis set group =>   4
Atom  16C    basis set group =>   4
Atom  17C    basis set group =>   4
Atom  18H    basis set group =>   5
Atom  19H    basis set group =>   5
Atom  20H    basis set group =>   5
Atom  21H    basis set group =>   5
Atom  22H    basis set group =>   5
Atom  23H    basis set group =>   5

-------------------------
BASIS SET IN INPUT FORMAT
-------------------------

 # Basis set for element : H 
 NewGTO H 
 S 3 
   1      34.0613410000      0.0254393168
   2       5.1235746000      0.1900859340
   3       1.1646626000      0.8524411390
 S 1 
   1       0.3272304100      1.0000000000
 S 1 
   1       0.1030724100      1.0000000000
 P 1 
   1       0.8000000000      1.0000000000
  end;

 # Basis set for element : C 
 NewGTO C 
 S 6 
   1   13575.3496820000      0.0006064601
   2    2035.2333680000      0.0046978985
   3     463.2256235900      0.0243324735
   4     131.2001959800      0.0973999560
   5      42.8530158900      0.3019558443
   6      15.5841857700      0.6623361013
 S 2 
   1       6.2067138500      0.6559530795
   2       2.5764896500      0.3758563390
 S 1 
   1       0.5769633900      1.0000000000
 S 1 
   1       0.2297283100      1.0000000000
 S 1 
   1       0.0951644400      1.0000000000
 P 4 
   1      34.6972322400      0.0113272290
   2       7.9582622800      0.0761696612
   3       2.3780826900      0.3019225154
   4       0.8143320800      0.7278502776
 P 1 
   1       0.2888754700      1.0000000000
 P 1 
   1       0.1005682400      1.0000000000
 D 1 
   1       0.8000000000      1.0000000000
  end;

 # Basis set for element : O 
 NewGTO O 
 S 6 
   1   27032.3826310000      0.0005722654
   2    4052.3871392000      0.0044353333
   3     922.3272271000      0.0230201034
   4     261.2407098900      0.0928224938
   5      85.3546413500      0.2937849971
   6      31.0350352400      0.6740160462
 S 2 
   1      12.2608607300      0.6383993750
   2       4.9987076000      0.3953458663
 S 1 
   1       1.1703108200      1.0000000000
 S 1 
   1       0.4647474100      1.0000000000
 S 1 
   1       0.1850453600      1.0000000000
 P 4 
   1      63.2749548000      0.0120183316
   2      14.6270493800      0.0830054304
   3       4.4501223500      0.3199174388
   4       1.5275799600      0.7071554258
 P 1 
   1       0.5293511800      1.0000000000
 P 1 
   1       0.1747842100      1.0000000000
 D 1 
   1       1.2000000000      1.0000000000
  end;

 # Basis set for element : S 
 NewGTO S 
 S 7 
   1   60700.9281040000      0.0005238013
   2    9102.6106854000      0.0040506304
   3    2071.4166009000      0.0208270003
   4     586.0247682100      0.0814968475
   5     190.5539502100      0.2374911358
   6      67.6303842600      0.4472617145
   7      25.1273069100      0.3489191913
 S 3 
   1     112.5746301000      0.1004556993
   2      34.7955542200      0.4339117282
   3       6.5115556200     -1.2084330582
 S 2 
   1       3.2399032300      0.6749812922
   2       1.5477160900      0.3470879597
 S 1 
   1       0.4054103000      1.0000000000
 S 1 
   1       0.1455065100      1.0000000000
 P 6 
   1     564.3671602700      0.0025564845
   2     133.4262437900      0.0202874255
   3      42.4682711900      0.0927670112
   4      15.6165275800      0.2650208365
   5       6.1093988500      0.4486298663
   6       2.4404160200      0.3596369916
 P 1 
   1       0.8388220100      1.0000000000
 P 1 
   1       0.3128874700      1.0000000000
 P 1 
   1       0.1077010900      1.0000000000
 D 1 
   1       0.5500000000      1.0000000000
  end;

 # Basis set for element : V 
 NewGTO V 
 S 1 
   1  4239814.9912500000      1.0000000000
 S 1 
   1  1695925.9965000001      1.0000000000
 S 1 
   1  678370.3986000001      1.0000000000
 S 1 
   1  271348.1594400000      1.0000000000
 S 1 
   1   40672.0050780000      1.0000000000
 S 1 
   1    9257.0761385000      1.0000000000
 S 1 
   1    2622.7328773000      1.0000000000
 S 1 
   1     858.5948018500      1.0000000000
 S 1 
   1     314.1941865000      1.0000000000
 S 1 
   1     124.4786212700      1.0000000000
 S 1 
   1      50.4693993090      1.0000000000
 S 1 
   1      12.5138469110      1.0000000000
 S 1 
   1       5.3447758082      1.0000000000
 S 1 
   1       1.5755631295      1.0000000000
 S 1 
   1       0.6306903307      1.0000000000
 S 1 
   1       0.0879544416      1.0000000000
 S 1 
   1       0.0342969197      1.0000000000
 P 3 
   1    1450.0319327000     -0.0222847647
   2     343.7504988400     -0.1817959329
   3     110.8252170800     -0.8607412073
 P 3 
   1      41.8224645460     -0.2522537814
   2      17.0880737100     -0.4620379520
   3       7.2613218939     -0.3990010670
 P 1 
   1       2.9458145262      1.0000000000
 P 1 
   1       1.1650209680      1.0000000000
 P 1 
   1       0.4339937839      1.0000000000
 D 3 
   1      27.3603358640      0.0575501019
   2       7.4542765527      0.3023798347
   3       2.4632270217      0.7724212088
 D 1 
   1       0.8249954244      1.0000000000
 D 1 
   1       0.2526297057      1.0000000000
 P 1 
   1       0.1112480000      1.0000000000
 P 1 
   1       0.0363780000      1.0000000000
 F 1 
   1       1.8000000000      1.0000000000
  end;

---------------------------------
AUXILIARY/J BASIS SET INFORMATION
---------------------------------
There are 5 groups of distinct atoms

 Group   1 Type V   : 19s5p5d3f3g contracted to 8s5p5d2f3g pattern {121111111/11111/11111/21/111}
 Group   2 Type S   : 14s5p5d2f1g contracted to 8s4p3d1f1g pattern {71111111/2111/311/2/1}
 Group   3 Type O   : 12s5p4d2f1g contracted to 6s4p3d1f1g pattern {711111/2111/211/2/1}
 Group   4 Type C   : 12s5p4d2f1g contracted to 6s4p3d1f1g pattern {711111/2111/211/2/1}
 Group   5 Type H   : 5s2p1d contracted to 3s1p1d pattern {311/2/1}

Atom   0V    basis set group =>   1
Atom   1S    basis set group =>   2
Atom   2S    basis set group =>   2
Atom   3S    basis set group =>   2
Atom   4S    basis set group =>   2
Atom   5O    basis set group =>   3
Atom   6C    basis set group =>   4
Atom   7C    basis set group =>   4
Atom   8C    basis set group =>   4
Atom   9H    basis set group =>   5
Atom  10H    basis set group =>   5
Atom  11H    basis set group =>   5
Atom  12H    basis set group =>   5
Atom  13H    basis set group =>   5
Atom  14H    basis set group =>   5
Atom  15C    basis set group =>   4
Atom  16C    basis set group =>   4
Atom  17C    basis set group =>   4
Atom  18H    basis set group =>   5
Atom  19H    basis set group =>   5
Atom  20H    basis set group =>   5
Atom  21H    basis set group =>   5
Atom  22H    basis set group =>   5
Atom  23H    basis set group =>   5

-------------------------------------
AUXILIARY/J BASIS SET IN INPUT FORMAT
-------------------------------------

 # Auxiliary/J basis set for element : H 
 NewAuxJGTO H 
 S 3 
   1      15.6752927000      0.1007184237
   2       3.6063578000      0.3404257499
   3       1.2080016000      0.6491996172
 S 1 
   1       0.4726794000      1.0000000000
 S 1 
   1       0.2018100000      1.0000000000
 P 2 
   1       2.0281365000      0.5596620919
   2       0.5358730000      0.5596620919
 D 1 
   1       2.2165124000      1.0000000000
  end;

 # Auxiliary/J basis set for element : C 
 NewAuxJGTO C 
 S 7 
   1    1861.0916331000      0.0134602335
   2     642.9939764000      0.0299160374
   3     235.1105725000      0.1008649584
   4      90.7028894000      0.2370970548
   5      36.7794552000      0.3924037254
   6      15.6046273000      0.3195862154
   7       6.8907294000      0.0530104441
 S 1 
   1       3.1478850000     -1.0000000000
 S 1 
   1       1.4777287000      1.0000000000
 S 1 
   1       0.7076466000      1.0000000000
 S 1 
   1       0.3430122000      1.0000000000
 S 1 
   1       0.1669453000      1.0000000000
 P 2 
   1      13.5472892000     -0.6769313712
   2       5.4669419000     -0.3779500978
 P 1 
   1       2.1751721000      1.0000000000
 P 1 
   1       0.8582194000      1.0000000000
 P 1 
   1       0.3376720000      1.0000000000
 D 2 
   1       5.9287253000     -0.3533329857
   2       1.9809209000     -0.7456525731
 D 1 
   1       0.8055417000     -1.0000000000
 D 1 
   1       0.3531244000     -1.0000000000
 F 2 
   1       1.6755626000      0.6311076882
   2       0.5997536000      0.4968166032
 G 1 
   1       1.0024600000     -1.0000000000
  end;

 # Auxiliary/J basis set for element : O 
 NewAuxJGTO O 
 S 7 
   1    2876.8216605000      0.0168151159
   2    1004.7443032000      0.0340137548
   3     369.7579954000      0.1194951309
   4     142.9442404000      0.2664627624
   5      57.8366425000      0.4202764046
   6      24.3864983000      0.2765077335
   7      10.6622662000      0.0057008815
 S 1 
   1       4.8070437000     -1.0000000000
 S 1 
   1       2.2210770000      1.0000000000
 S 1 
   1       1.0447795000      1.0000000000
 S 1 
   1       0.4968425000      1.0000000000
 S 1 
   1       0.2371384000      1.0000000000
 P 2 
   1      64.2613382000     -0.2731534179
   2      16.3006076000     -0.8168011598
 P 1 
   1       4.3550542000      1.0000000000
 P 1 
   1       1.2019554000      1.0000000000
 P 1 
   1       0.3354196000      1.0000000000
 D 2 
   1       9.2146611000     -0.4661230638
   2       2.8435251000     -0.6600908911
 D 1 
   1       0.9955759000     -1.0000000000
 D 1 
   1       0.3649441000     -1.0000000000
 F 2 
   1       2.6420115000      0.5931563945
   2       0.7345613000      0.5931563945
 G 1 
   1       1.3931000000     -1.0000000000
  end;

 # Auxiliary/J basis set for element : S 
 NewAuxJGTO S 
 S 7 
   1    7399.0303145000      0.0295137551
   2    2710.1675859000      0.0559686311
   3    1034.3279062000      0.1764696370
   4     410.4645411000      0.3577969368
   5     168.9762502000      0.4299293578
   6      71.9687889000      0.1259148089
   7      31.6172683000     -0.0646025788
 S 1 
   1      14.2796836000      1.0000000000
 S 1 
   1       6.6060948000      1.0000000000
 S 1 
   1       3.1181477000      1.0000000000
 S 1 
   1       1.4954039000     -1.0000000000
 S 1 
   1       0.7254779000      1.0000000000
 S 1 
   1       0.3544216000      1.0000000000
 S 1 
   1       0.1735525000      1.0000000000
 P 2 
   1      12.6998799000      1.4059102813
   2       4.4295784000     -1.2124994202
 P 1 
   1       1.5232889000      1.0000000000
 P 1 
   1       0.5194667000     -1.0000000000
 P 1 
   1       0.1766547000     -1.0000000000
 D 3 
   1      16.8546461000      1.0295742104
   2       5.0810461000     -0.7461553923
   3       1.5102323000      0.8357028005
 D 1 
   1       0.4451331000      1.0000000000
 D 1 
   1       0.1308362000      1.0000000000
 F 2 
   1       1.0809860000      0.5572698934
   2       0.4161474000      0.5572698934
 G 1 
   1       0.6707100000     -1.0000000000
  end;

 # Auxiliary/J basis set for element : V 
 NewAuxJGTO V 
 S 12 
   1   11942.0842430000      0.0459866720
   2    2430.7110193000      0.1744615821
   3     841.0764301000      0.2900402792
   4     494.7508273000      0.1411212903
   5     291.0298903000      0.2660697186
   6     171.1940483000      0.0446365706
   7      59.2366916000     -0.0408204801
   8      34.8451117000      0.1394665381
   9      20.4971240000      0.2164746715
  10      12.0571314000      0.0864266611
  11       7.0924300000     -0.0568501658
  12       4.1720176000     -0.0126212852
 S 1 
   1       2.4541279000      1.0000000000
 S 1 
   1       1.4436046000      1.0000000000
 S 1 
   1       0.8491792000      1.0000000000
 S 1 
   1       0.2938336000      1.0000000000
 S 1 
   1       0.1728433000      1.0000000000
 S 1 
   1       0.1016725000      1.0000000000
 S 1 
   1       0.0598074000      1.0000000000
 P 1 
   1      16.7130979000     -1.0000000000
 P 1 
   1       4.7454037000     -1.0000000000
 P 1 
   1       1.3889998000      1.0000000000
 P 1 
   1       0.4142440000     -1.0000000000
 P 1 
   1       0.1243234000      1.0000000000
 D 1 
   1       7.7143225000      1.0000000000
 D 1 
   1       3.1170731000      1.0000000000
 D 1 
   1       1.2767950000     -1.0000000000
 D 1 
   1       0.5273386000      1.0000000000
 D 1 
   1       0.2184050000      1.0000000000
 F 2 
   1       3.1309344000     -1.0825667766
   2       1.0419780000      0.1809223232
 F 1 
   1       0.3559044000      1.0000000000
 G 1 
   1       8.7130110000      1.0000000000
 G 1 
   1       2.7493872000      1.0000000000
 G 1 
   1       0.8775089000      1.0000000000
  end;



           ************************************************************
           *        Program running with 8 parallel MPI-processes     *
           *              working on a common directory               *
           ************************************************************
------------------------------------------------------------------------------
                           ORCA GTO INTEGRAL CALCULATION
                           -- RI-GTO INTEGRALS CHOSEN --
------------------------------------------------------------------------------
------------------------------------------------------------------------------
                   ___                                                        
                  /   \      - P O W E R E D   B Y -                         
                 /     \                                                     
                 |  |  |   _    _      __       _____    __    __             
                 |  |  |  | |  | |    /  \     |  _  \  |  |  /  |          
                  \  \/   | |  | |   /    \    | | | |  |  | /  /          
                 / \  \   | |__| |  /  /\  \   | |_| |  |  |/  /          
                |  |  |   |  __  | /  /__\  \  |    /   |      \           
                |  |  |   | |  | | |   __   |  |    \   |  |\   \          
                \     /   | |  | | |  |  |  |  | |\  \  |  | \   \       
                 \___/    |_|  |_| |__|  |__|  |_| \__\ |__|  \__/        
                                                                              
                      - O R C A' S   B I G   F R I E N D -                    
                                      &                                       
                       - I N T E G R A L  F E E D E R -                       
                                                                              
 v1 FN, 2020, v2 2021                                                         
------------------------------------------------------------------------------


Reading SHARK input file input_3.SHARKINP.tmp ... ok
----------------------
SHARK INTEGRAL PACKAGE
----------------------

Number of atoms                             ...     24
Number of basis functions                   ...    353
Number of shells                            ...    179
Maximum angular momentum                    ...      3
Integral batch strategy                     ... SHARK/LIBINT Hybrid
RI-J (if used) integral strategy            ... SPLIT-RIJ (Revised 2003 algorithm where possible)
Printlevel                                  ...      1
Contraction scheme used                     ... SEGMENTED contraction
Coulomb Range Separation                    ... NOT USED
Exchange Range Separation                   ... NOT USED
Finite Nucleus Model                        ... NOT USED
Auxiliary Coulomb fitting basis             ... AVAILABLE
   # of basis functions in Aux-J            ...    768
   # of shells in Aux-J                     ...    256
   Maximum angular momentum in Aux-J        ...      4
Auxiliary J/K fitting basis                 ... NOT available
Auxiliary Correlation fitting basis         ... NOT available
Auxiliary 'external' fitting basis          ... NOT available
Integral threshold                          ...     1.000000e-10
Primitive cut-off                           ...     1.000000e-11
Primitive pair pre-selection threshold      ...     1.000000e-11

Calculating pre-screening integrals         ... done (  0.0 sec) Dimension = 179
Organizing shell pair data                  ... done (  0.1 sec)
Shell pair information
Total number of shell pairs                 ...     16110
Shell pairs after pre-screening             ...     11571
Total number of primitive shell pairs       ...     54315
Primitive shell pairs kept                  ...     25747
          la=0 lb=0:   3956 shell pairs
          la=1 lb=0:   4441 shell pairs
          la=1 lb=1:   1268 shell pairs
          la=2 lb=0:   1071 shell pairs
          la=2 lb=1:    611 shell pairs
          la=2 lb=2:     85 shell pairs
          la=3 lb=0:     76 shell pairs
          la=3 lb=1:     48 shell pairs
          la=3 lb=2:     14 shell pairs
          la=3 lb=3:      1 shell pairs

Calculating one electron integrals          ... done (  0.0 sec)
Calculating RI/J V-Matrix + Cholesky decomp.... done (  0.0 sec)
Calculating Nuclear repulsion               ... done (  0.0 sec) ENN=   1519.817638864109 Eh

SHARK setup successfully completed in   0.3 seconds

Maximum memory used throughout the entire GTOINT-calculation: 25.5 MB


           ************************************************************
           *        Program running with 8 parallel MPI-processes     *
           *              working on a common directory               *
           ************************************************************
-------------------------------------------------------------------------------
                                 ORCA SCF
-------------------------------------------------------------------------------

------------
SCF SETTINGS
------------
Hamiltonian:
 Density Functional     Method          .... DFT(GTOs)
 Exchange Functional    Exchange        .... B88
   X-Alpha parameter    XAlpha          ....  0.666667
   Becke's b parameter  XBeta           ....  0.004200
 Correlation Functional Correlation     .... LYP
 LDA part of GGA corr.  LDAOpt          .... VWN-5
 Gradients option       PostSCFGGA      .... off
 Hybrid DFT is turned on
   Fraction HF Exchange ScalHFX         ....  0.200000
   Scaling of DF-GGA-X  ScalDFX         ....  0.720000
   Scaling of DF-GGA-C  ScalDFC         ....  0.810000
   Scaling of DF-LDA-C  ScalLDAC        ....  1.000000
   Perturbative correction              ....  0.000000
   Density functional embedding theory  .... OFF
   NL short-range parameter             ....  4.800000
 RI-approximation to the Coulomb term is turned on
   Number of AuxJ basis functions       .... 768
   RIJ-COSX (HFX calculated with COS-X)).... on


General Settings:
 Integral files         IntName         .... input_3
 Hartree-Fock type      HFTyp           .... UHF
 Total Charge           Charge          ....   -2
 Multiplicity           Mult            ....    2
 Number of Electrons    NEL             ....  145
 Basis Dimension        Dim             ....  353
 Nuclear Repulsion      ENuc            ....   1519.8176388641 Eh

Convergence Acceleration:
 DIIS                   CNVDIIS         .... on
   Start iteration      DIISMaxIt       ....    12
   Startup error        DIISStart       ....  0.200000
   # of expansion vecs  DIISMaxEq       ....     5
   Bias factor          DIISBfac        ....   1.050
   Max. coefficient     DIISMaxC        ....  10.000
 Trust-Rad. Augm. Hess. CNVTRAH         .... auto
   Auto Start mean grad. ratio tolernc. ....  1.125000
   Auto Start start iteration           ....    20
   Auto Start num. interpolation iter.  ....    10
   Max. Number of Micro iterations      ....    16
   Max. Number of Macro iterations      .... Maxiter - #DIIS iter
   Number of Davidson start vectors     ....     2
   Converg. threshold I  (grad. norm)   ....   5.000e-05
   Converg. threshold II (energy diff.) ....   1.000e-06
   Grad. Scal. Fac. for Micro threshold ....   0.100
   Minimum threshold for Micro iter.    ....   0.010
   NR start threshold (gradient norm)   ....   0.001
   Initial trust radius                 ....   0.400
   Minimum AH scaling param. (alpha)    ....   1.000
   Maximum AH scaling param. (alpha)    .... 1000.000
   Orbital update algorithm             .... Taylor
   White noise on init. David. guess    .... on
   Maximum white noise                  ....   0.010
   Quad. conv. algorithm                .... NR
 SOSCF                  CNVSOSCF        .... off
 Level Shifting         CNVShift        .... on
   Level shift para.    LevelShift      ....    0.2500
   Turn off err/grad.   ShiftErr        ....    0.0010
 Zerner damping         CNVZerner       .... off
 Static damping         CNVDamp         .... on
   Fraction old density DampFac         ....    0.7000
   Max. Damping (<1)    DampMax         ....    0.9800
   Min. Damping (>=0)   DampMin         ....    0.0000
   Turn off err/grad.   DampErr         ....    0.1000
 Fernandez-Rico         CNVRico         .... off

SCF Procedure:
 Maximum # iterations   MaxIter         ....   125
 SCF integral mode      SCFMode         .... Direct
   Integral package                     .... SHARK and LIBINT hybrid scheme
 Reset frequency        DirectResetFreq ....    20
 Integral Threshold     Thresh          ....  1.000e-10 Eh
 Primitive CutOff       TCut            ....  1.000e-11 Eh

Convergence Tolerance:
 Convergence Check Mode ConvCheckMode   .... Total+1el-Energy
 Convergence forced     ConvForced      .... 0
 Energy Change          TolE            ....  1.000e-06 Eh
 1-El. energy change                    ....  1.000e-03 Eh
 DIIS Error             TolErr          ....  1.000e-06


Diagonalization of the overlap matrix:
Smallest eigenvalue                        ... 2.824e-04
Time for diagonalization                   ...    0.076 sec
Threshold for overlap eigenvalues          ... 1.000e-08
Number of eigenvalues below threshold      ... 0
Time for construction of square roots      ...    0.038 sec
Total time needed                          ...    0.117 sec

Time for model grid setup =    0.175 sec

------------------------------
INITIAL GUESS: MODEL POTENTIAL
------------------------------
Loading Hartree-Fock densities                     ... done
Calculating cut-offs                               ... done
Initializing the effective Hamiltonian             ... done
Setting up the integral package (SHARK)            ... done
Starting the Coulomb interaction                   ... done (   0.1 sec)
Reading the grid                                   ... done
Mapping shells                                     ... done
Starting the XC term evaluation                    ... done (   0.1 sec)
  promolecular density results
     # of electrons  =    142.994930187
     EX              =   -186.852087487
     EC              =     -5.514984619
     EX+EC           =   -192.367072106
Transforming the Hamiltonian                       ... done (   0.0 sec)
Diagonalizing the Hamiltonian                      ... done (   0.0 sec)
Back transforming the eigenvectors                 ... done (   0.0 sec)
Now organizing SCF variables                       ... done
                      ------------------
                      INITIAL GUESS DONE (   0.4 sec)
                      ------------------
-------------------
DFT GRID GENERATION
-------------------

General Integration Accuracy     IntAcc      ... 4.388
Radial Grid Type                 RadialGrid  ... OptM3 with GC (2021)
Angular Grid (max. ang.)         AngularGrid ... 4 (Lebedev-302)
Angular grid pruning method      GridPruning ... 4 (adaptive)
Weight generation scheme         WeightScheme... Becke
Basis function cutoff            BFCut       ... 1.0000e-10
Integration weight cutoff        WCut        ... 1.0000e-14
Angular grids for H and He will be reduced by one unit
Partially contracted basis set               ... off
Rotationally invariant grid construction     ... off

Total number of grid points                  ...   131106
Total number of batches                      ...     2061
Average number of points per batch           ...       63
Average number of grid points per atom       ...     5463
Time for grid setup =    0.902 sec

--------------------
COSX GRID GENERATION
--------------------

GRIDX 1
-------
General Integration Accuracy     IntAcc      ... 3.816
Radial Grid Type                 RadialGrid  ... OptM3 with GC (2021)
Angular Grid (max. ang.)         AngularGrid ... 1 (Lebedev-50)
Angular grid pruning method      GridPruning ... 4 (adaptive)
Weight generation scheme         WeightScheme... Becke
Basis function cutoff            BFCut       ... 1.0000e-10
Integration weight cutoff        WCut        ... 1.0000e-14
Angular grids for H and He will be reduced by one unit
Partially contracted basis set               ... on
Rotationally invariant grid construction     ... off

Total number of grid points                  ...    16453
Total number of batches                      ...      269
Average number of points per batch           ...       61
Average number of grid points per atom       ...      686
UseSFitting                                  ... on

GRIDX 2
-------
General Integration Accuracy     IntAcc      ... 4.020
Radial Grid Type                 RadialGrid  ... OptM3 with GC (2021)
Angular Grid (max. ang.)         AngularGrid ... 2 (Lebedev-110)
Angular grid pruning method      GridPruning ... 4 (adaptive)
Weight generation scheme         WeightScheme... Becke
Basis function cutoff            BFCut       ... 1.0000e-10
Integration weight cutoff        WCut        ... 1.0000e-14
Angular grids for H and He will be reduced by one unit
Partially contracted basis set               ... on
Rotationally invariant grid construction     ... off

Total number of grid points                  ...    34414
Total number of batches                      ...      554
Average number of points per batch           ...       62
Average number of grid points per atom       ...     1434
UseSFitting                                  ... on

GRIDX 3
-------
General Integration Accuracy     IntAcc      ... 4.338
Radial Grid Type                 RadialGrid  ... OptM3 with GC (2021)
Angular Grid (max. ang.)         AngularGrid ... 3 (Lebedev-194)
Angular grid pruning method      GridPruning ... 4 (adaptive)
Weight generation scheme         WeightScheme... Becke
Basis function cutoff            BFCut       ... 1.0000e-10
Integration weight cutoff        WCut        ... 1.0000e-14
Angular grids for H and He will be reduced by one unit
Partially contracted basis set               ... on
Rotationally invariant grid construction     ... off

Total number of grid points                  ...    77523
Total number of batches                      ...     1223
Average number of points per batch           ...       63
Average number of grid points per atom       ...     3230
UseSFitting                                  ... on

Time for X-Grid setup             =    0.724 sec

--------------
SCF ITERATIONS
--------------
ITER       Energy         Delta-E        Max-DP      RMS-DP      [F,P]     Damp
               ***  Starting incremental Fock matrix formation  ***
  0  -2847.0971181010   0.000000000000 0.07415476  0.00109016  0.2292393 0.7000
  1  -2847.3271429956  -0.230024894584 0.10343008  0.00107040  0.1558915 0.7000
                               ***Turning on DIIS***
  2  -2847.4656675865  -0.138524590955 0.06048133  0.00064911  0.1090300 0.7000
  3  -2847.5388418832  -0.073174296701 0.08987740  0.00096332  0.0771179 0.0000
  4  -2847.7107402388  -0.171898355629 0.05455397  0.00047932  0.0109446 0.0000
  5  -2847.7155987985  -0.004858559619 0.01049933  0.00013272  0.0094843 0.0000
  6  -2847.7166398035  -0.001041005078 0.00569713  0.00006589  0.0030569 0.0000
  7  -2847.7168506162  -0.000210812647 0.00296340  0.00003491  0.0013056 0.0000
  8  -2847.7169326757  -0.000082059493 0.00260620  0.00002747  0.0010754 0.0000
  9  -2847.7169876293  -0.000054953630 0.00370861  0.00004526  0.0007158 0.0000
               *** Restarting incremental Fock matrix formation ***
                                   *** Resetting DIIS ***
 10  -2847.7170599185  -0.000072289209 0.00132579  0.00001458  0.0005545 0.0000
 11  -2847.7170695835  -0.000009664926 0.00027005  0.00000376  0.0010386 0.0000
 12  -2847.7170753044  -0.000005720912 0.00050128  0.00000838  0.0002416 0.0000
 13  -2847.7170772114  -0.000001907044 0.00042028  0.00000602  0.0005619 0.0000
 14  -2847.7170828080  -0.000005596624 0.00042937  0.00000733  0.0001744 0.0000
 15  -2847.7170849526  -0.000002144560 0.00008670  0.00000187  0.0000876 0.0000
 16  -2847.7170850480  -0.000000095404 0.00008085  0.00000138  0.0000757 0.0000
                 **** Energy Check signals convergence ****

               *****************************************************
               *                     SUCCESS                       *
               *           SCF CONVERGED AFTER  17 CYCLES          *
               *****************************************************

Old exchange energy                            =    -37.604671435 Eh
New exchange energy                            =    -37.604650792 Eh
Exchange energy change after final integration =      0.000020643 Eh
Total energy after final integration           =  -2847.717064476 Eh
Final COS-X integration done in                =     5.536 sec

----------------
TOTAL SCF ENERGY
----------------

Total Energy       :        -2847.71706448 Eh          -77490.32086 eV

Components:
Nuclear Repulsion  :         1519.81763886 Eh           41356.34047 eV
Electronic Energy  :        -4367.53470334 Eh         -118846.66133 eV
One Electron Energy:        -6990.50379426 Eh         -190221.27890 eV
Two Electron Energy:         2622.96909092 Eh           71374.61758 eV
Max COSX asymmetry :            0.00000203 Eh               0.00006 eV

Virial components:
Potential Energy   :        -5688.58440110 Eh         -154794.25114 eV
Kinetic Energy     :         2840.86733662 Eh           77303.93029 eV
Virial Ratio       :            2.00241114


DFT components:
N(Alpha)           :       73.000029403374 electrons
N(Beta)            :       72.000028417876 electrons
N(Total)           :      145.000057821250 electrons
E(X)               :     -149.528596956116 Eh       
E(C)               :       -6.524778188600 Eh       
E(XC)              :     -156.053375144716 Eh       
DFET-embed. en.    :        0.000000000000 Eh       

---------------
SCF CONVERGENCE
---------------

  Last Energy change         ...   -7.0832e-08  Tolerance :   1.0000e-06
  Last MAX-Density change    ...    0.0000e+00  Tolerance :   1.0000e-05
  Last RMS-Density change    ...    0.0000e+00  Tolerance :   1.0000e-06
  Last DIIS Error            ...    1.0025e-05  Tolerance :   1.0000e-06

             **** THE GBW FILE WAS UPDATED (input_3.gbw) ****
             **** DENSITY input_3.scfp WAS UPDATED ****
             **** ENERGY FILE WAS UPDATED (input_3.en.tmp) ****
----------------------
UHF SPIN CONTAMINATION
----------------------

Warning: in a DFT calculation there is little theoretical justification to 
         calculate <S**2> as in Hartree-Fock theory. We will do it anyways
         but you should keep in mind that the values have only limited relevance

Expectation value of <S**2>     :     0.765721
Ideal value S*(S+1) for S=0.5   :     0.750000
Deviation                       :     0.015721

             **** THE GBW FILE WAS UPDATED (input_3.gbw) ****
             **** DENSITY input_3.scfp WAS UPDATED ****
----------------
ORBITAL ENERGIES
----------------
                 SPIN UP ORBITALS
  NO   OCC          E(Eh)            E(eV) 
   0   1.0000    -196.606917     -5349.9462 
   1   1.0000     -88.561630     -2409.8845 
   2   1.0000     -88.560679     -2409.8586 
   3   1.0000     -88.558774     -2409.8067 
   4   1.0000     -88.558038     -2409.7867 
   5   1.0000     -21.982157      -598.1649 
   6   1.0000     -18.825132      -512.2579 
   7   1.0000     -18.490024      -503.1391 
   8   1.0000     -18.482739      -502.9409 
   9   1.0000     -18.482639      -502.9382 
  10   1.0000      -9.942965      -270.5618 
  11   1.0000      -9.936652      -270.3900 
  12   1.0000      -9.935087      -270.3475 
  13   1.0000      -9.933966      -270.3170 
  14   1.0000      -9.932367      -270.2734 
  15   1.0000      -9.929375      -270.1920 
  16   1.0000      -7.615404      -207.2257 
  17   1.0000      -7.614841      -207.2104 
  18   1.0000      -7.613103      -207.1631 
  19   1.0000      -7.612232      -207.1394 
  20   1.0000      -5.580780      -151.8607 
  21   1.0000      -5.580076      -151.8416 
  22   1.0000      -5.578570      -151.8006 
  23   1.0000      -5.577496      -151.7714 
  24   1.0000      -5.574304      -151.6845 
  25   1.0000      -5.573796      -151.6707 
  26   1.0000      -5.572617      -151.6386 
  27   1.0000      -5.572126      -151.6252 
  28   1.0000      -5.572049      -151.6232 
  29   1.0000      -5.571426      -151.6062 
  30   1.0000      -5.570002      -151.5675 
  31   1.0000      -5.569364      -151.5501 
  32   1.0000      -2.374863       -64.6233 
  33   1.0000      -1.417715       -38.5780 
  34   1.0000      -1.402898       -38.1748 
  35   1.0000      -1.402373       -38.1605 
  36   1.0000      -0.587585       -15.9890 
  37   1.0000      -0.550293       -14.9742 
  38   1.0000      -0.549905       -14.9637 
  39   1.0000      -0.468066       -12.7367 
  40   1.0000      -0.465323       -12.6621 
  41   1.0000      -0.403957       -10.9922 
  42   1.0000      -0.396476       -10.7887 
  43   1.0000      -0.337513        -9.1842 
  44   1.0000      -0.327858        -8.9215 
  45   1.0000      -0.303295        -8.2531 
  46   1.0000      -0.285333        -7.7643 
  47   1.0000      -0.214010        -5.8235 
  48   1.0000      -0.206003        -5.6056 
  49   1.0000      -0.202181        -5.5016 
  50   1.0000      -0.199377        -5.4253 
  51   1.0000      -0.158600        -4.3157 
  52   1.0000      -0.133726        -3.6389 
  53   1.0000      -0.131076        -3.5668 
  54   1.0000      -0.111586        -3.0364 
  55   1.0000      -0.107664        -2.9297 
  56   1.0000      -0.105947        -2.8830 
  57   1.0000      -0.083432        -2.2703 
  58   1.0000      -0.067791        -1.8447 
  59   1.0000      -0.063468        -1.7270 
  60   1.0000      -0.056728        -1.5436 
  61   1.0000      -0.045874        -1.2483 
  62   1.0000      -0.038538        -1.0487 
  63   1.0000      -0.036230        -0.9859 
  64   1.0000      -0.000847        -0.0231 
  65   1.0000       0.026646         0.7251 
  66   1.0000       0.031639         0.8609 
  67   1.0000       0.035822         0.9748 
  68   1.0000       0.045682         1.2431 
  69   1.0000       0.052349         1.4245 
  70   1.0000       0.064543         1.7563 
  71   1.0000       0.072758         1.9798 
  72   1.0000       0.082214         2.2372 
  73   0.0000       0.234472         6.3803 
  74   0.0000       0.246278         6.7016 
  75   0.0000       0.250162         6.8072 
  76   0.0000       0.252364         6.8672 
  77   0.0000       0.258252         7.0274 
  78   0.0000       0.262365         7.1393 
  79   0.0000       0.278148         7.5688 
  80   0.0000       0.289123         7.8674 
  81   0.0000       0.292888         7.9699 
  82   0.0000       0.295709         8.0466 
  83   0.0000       0.300755         8.1840 
  84   0.0000       0.304063         8.2740 
  85   0.0000       0.313872         8.5409 
  86   0.0000       0.316763         8.6195 
  87   0.0000       0.325215         8.8496 
  88   0.0000       0.332073         9.0362 
  89   0.0000       0.333932         9.0868 
  90   0.0000       0.353995         9.6327 
  91   0.0000       0.357957         9.7405 
  92   0.0000       0.363438         9.8897 
  93   0.0000       0.379973        10.3396 
  94   0.0000       0.380471        10.3532 
  95   0.0000       0.401697        10.9307 
  96   0.0000       0.411326        11.1927 
  97   0.0000       0.416630        11.3371 
  98   0.0000       0.427384        11.6297 
  99   0.0000       0.433359        11.7923 
 100   0.0000       0.440065        11.9748 
 101   0.0000       0.445795        12.1307 
 102   0.0000       0.447938        12.1890 
 103   0.0000       0.458322        12.4716 
 104   0.0000       0.462886        12.5958 
 105   0.0000       0.470677        12.8078 
 106   0.0000       0.480250        13.0683 
 107   0.0000       0.484076        13.1724 
 108   0.0000       0.495879        13.4936 
 109   0.0000       0.504256        13.7215 
 110   0.0000       0.517955        14.0943 
 111   0.0000       0.529241        14.4014 
 112   0.0000       0.539102        14.6697 
 113   0.0000       0.544919        14.8280 
 114   0.0000       0.554490        15.0884 
 115   0.0000       0.560064        15.2401 
 116   0.0000       0.576896        15.6981 
 117   0.0000       0.580319        15.7913 
 118   0.0000       0.585189        15.9238 
 119   0.0000       0.594203        16.1691 
 120   0.0000       0.609212        16.5775 
 121   0.0000       0.610672        16.6172 
 122   0.0000       0.618469        16.8294 
 123   0.0000       0.629269        17.1233 
 124   0.0000       0.633004        17.2249 
 125   0.0000       0.641031        17.4433 
 126   0.0000       0.644812        17.5462 
 127   0.0000       0.650261        17.6945 
 128   0.0000       0.656548        17.8656 
 129   0.0000       0.665976        18.1221 
 130   0.0000       0.669392        18.2151 
 131   0.0000       0.674312        18.3490 
 132   0.0000       0.675320        18.3764 
 133   0.0000       0.680018        18.5042 
 134   0.0000       0.685771        18.6608 
 135   0.0000       0.689696        18.7676 
 136   0.0000       0.694210        18.8904 
 137   0.0000       0.704043        19.1580 
 138   0.0000       0.708358        19.2754 
 139   0.0000       0.718812        19.5599 
 140   0.0000       0.722483        19.6598 
 141   0.0000       0.727946        19.8084 
 142   0.0000       0.743497        20.2316 
 143   0.0000       0.746411        20.3109 
 144   0.0000       0.759394        20.6642 
 145   0.0000       0.766443        20.8560 
 146   0.0000       0.784808        21.3557 
 147   0.0000       0.801935        21.8217 
 148   0.0000       0.814026        22.1508 
 149   0.0000       0.817327        22.2406 
 150   0.0000       0.829100        22.5610 
 151   0.0000       0.833848        22.6902 
 152   0.0000       0.864405        23.5217 
 153   0.0000       0.874403        23.7937 
 154   0.0000       0.889399        24.2018 
 155   0.0000       0.914163        24.8756 
 156   0.0000       0.922049        25.0902 
 157   0.0000       0.960529        26.1373 
 158   0.0000       0.989251        26.9189 
 159   0.0000       0.998137        27.1607 
 160   0.0000       1.002176        27.2706 
 161   0.0000       1.010121        27.4868 
 162   0.0000       1.016526        27.6611 
 163   0.0000       1.029073        28.0025 
 164   0.0000       1.040088        28.3022 
 165   0.0000       1.051680        28.6177 
 166   0.0000       1.063758        28.9463 
 167   0.0000       1.077327        29.3156 
 168   0.0000       1.093568        29.7575 
 169   0.0000       1.122048        30.5325 
 170   0.0000       1.136571        30.9277 
 171   0.0000       1.152360        31.3573 
 172   0.0000       1.158826        31.5333 
 173   0.0000       1.169954        31.8361 
 174   0.0000       1.178378        32.0653 
 175   0.0000       1.199836        32.6492 
 176   0.0000       1.255452        34.1626 
 177   0.0000       1.281182        34.8627 
 178   0.0000       1.292234        35.1635 
 179   0.0000       1.303709        35.4757 
 180   0.0000       1.325628        36.0722 
 181   0.0000       1.347916        36.6787 
 182   0.0000       1.374267        37.3957 
 183   0.0000       1.381946        37.6047 
 184   0.0000       1.430907        38.9370 
 185   0.0000       1.434150        39.0252 
 186   0.0000       1.443076        39.2681 
 187   0.0000       1.448672        39.4204 
 188   0.0000       1.456885        39.6438 
 189   0.0000       1.524466        41.4828 
 190   0.0000       1.532941        41.7135 
 191   0.0000       1.539307        41.8867 
 192   0.0000       1.555070        42.3156 
 193   0.0000       1.556722        42.3606 
 194   0.0000       1.566738        42.6331 
 195   0.0000       1.570388        42.7324 
 196   0.0000       1.572304        42.7846 
 197   0.0000       1.587562        43.1997 
 198   0.0000       1.619970        44.0816 
 199   0.0000       1.627408        44.2840 
 200   0.0000       1.634199        44.4688 
 201   0.0000       1.635522        44.5048 
 202   0.0000       1.653719        45.0000 
 203   0.0000       1.669181        45.4207 
 204   0.0000       1.681123        45.7457 
 205   0.0000       1.691713        46.0339 
 206   0.0000       1.699225        46.2383 
 207   0.0000       1.711006        46.5588 
 208   0.0000       1.715173        46.6722 
 209   0.0000       1.734564        47.1999 
 210   0.0000       1.739259        47.3276 
 211   0.0000       1.746047        47.5124 
 212   0.0000       1.780483        48.4494 
 213   0.0000       1.794099        48.8199 
 214   0.0000       1.805270        49.1239 
 215   0.0000       1.847494        50.2729 
 216   0.0000       1.849633        50.3311 
 217   0.0000       1.869792        50.8796 
 218   0.0000       1.878912        51.1278 
 219   0.0000       1.911195        52.0063 
 220   0.0000       1.926414        52.4204 
 221   0.0000       1.929950        52.5166 
 222   0.0000       1.937613        52.7251 
 223   0.0000       1.947113        52.9837 
 224   0.0000       1.988685        54.1149 
 225   0.0000       2.002331        54.4862 
 226   0.0000       2.012003        54.7494 
 227   0.0000       2.039724        55.5037 
 228   0.0000       2.045099        55.6500 
 229   0.0000       2.052660        55.8557 
 230   0.0000       2.058091        56.0035 
 231   0.0000       2.069837        56.3231 
 232   0.0000       2.093439        56.9654 
 233   0.0000       2.097220        57.0682 
 234   0.0000       2.101940        57.1967 
 235   0.0000       2.132286        58.0224 
 236   0.0000       2.155595        58.6567 
 237   0.0000       2.158346        58.7316 
 238   0.0000       2.167533        58.9816 
 239   0.0000       2.196411        59.7674 
 240   0.0000       2.201321        59.9010 
 241   0.0000       2.207903        60.0801 
 242   0.0000       2.220700        60.4283 
 243   0.0000       2.248315        61.1797 
 244   0.0000       2.253109        61.3102 
 245   0.0000       2.271620        61.8139 
 246   0.0000       2.277048        61.9616 
 247   0.0000       2.296178        62.4822 
 248   0.0000       2.306095        62.7520 
 249   0.0000       2.336235        63.5722 
 250   0.0000       2.346428        63.8496 
 251   0.0000       2.381110        64.7933 
 252   0.0000       2.381882        64.8143 
 253   0.0000       2.392094        65.0922 
 254   0.0000       2.411524        65.6209 
 255   0.0000       2.441804        66.4449 
 256   0.0000       2.461020        66.9678 
 257   0.0000       2.498389        67.9846 
 258   0.0000       2.513787        68.4036 
 259   0.0000       2.516472        68.4767 
 260   0.0000       2.546329        69.2891 
 261   0.0000       2.564566        69.7854 
 262   0.0000       2.577338        70.1329 
 263   0.0000       2.597203        70.6735 
 264   0.0000       2.611181        71.0538 
 265   0.0000       2.629198        71.5441 
 266   0.0000       2.637979        71.7831 
 267   0.0000       2.673182        72.7410 
 268   0.0000       2.683738        73.0282 
 269   0.0000       2.699167        73.4481 
 270   0.0000       2.740356        74.5689 
 271   0.0000       2.764221        75.2183 
 272   0.0000       2.771183        75.4077 
 273   0.0000       2.781196        75.6802 
 274   0.0000       2.816213        76.6331 
 275   0.0000       2.840383        77.2908 
 276   0.0000       2.854507        77.6751 
 277   0.0000       2.862121        77.8823 
 278   0.0000       2.872848        78.1742 
 279   0.0000       2.892207        78.7010 
 280   0.0000       2.895745        78.7972 
 281   0.0000       2.908873        79.1545 
 282   0.0000       2.926530        79.6349 
 283   0.0000       2.934875        79.8620 
 284   0.0000       2.940219        80.0074 
 285   0.0000       2.949096        80.2490 
 286   0.0000       2.962519        80.6142 
 287   0.0000       2.970537        80.8324 
 288   0.0000       2.984726        81.2185 
 289   0.0000       2.994344        81.4802 
 290   0.0000       3.024452        82.2995 
 291   0.0000       3.032659        82.5229 
 292   0.0000       3.039415        82.7067 
 293   0.0000       3.054217        83.1095 
 294   0.0000       3.077892        83.7537 
 295   0.0000       3.105810        84.5134 
 296   0.0000       3.156719        85.8987 
 297   0.0000       3.259036        88.6829 
 298   0.0000       3.273619        89.0797 
 299   0.0000       3.365360        91.5761 
 300   0.0000       3.394966        92.3817 
 301   0.0000       3.450287        93.8871 
 302   0.0000       3.484592        94.8206 
 303   0.0000       3.542151        96.3868 
 304   0.0000       3.552572        96.6704 
 305   0.0000       3.556526        96.7780 
 306   0.0000       3.582326        97.4800 
 307   0.0000       3.602706        98.0346 
 308   0.0000       3.626262        98.6756 
 309   0.0000       3.638963        99.0212 
 310   0.0000       3.657572        99.5276 
 311   0.0000       3.665498        99.7433 
 312   0.0000       3.693455       100.5040 
 313   0.0000       3.860038       105.0370 
 314   0.0000       3.897188       106.0479 
 315   0.0000       3.922053       106.7245 
 316   0.0000       4.045173       110.0748 
 317   0.0000       4.264183       116.0343 
 318   0.0000       4.577989       124.5734 
 319   0.0000       4.594079       125.0113 
 320   0.0000       4.596619       125.0804 
 321   0.0000       4.618589       125.6782 
 322   0.0000       4.648443       126.4906 
 323   0.0000       4.648899       126.5030 
 324   0.0000       5.219442       142.0282 
 325   0.0000       7.037443       191.4986 
 326   0.0000       7.098777       193.1676 
 327   0.0000       7.157053       194.7533 
 328   0.0000      18.828087       512.3383 
 329   0.0000      18.869329       513.4605 
 330   0.0000      19.015688       517.4432 
 331   0.0000      19.064049       518.7591 
 332   0.0000      19.835810       539.7598 
 333   0.0000      22.194684       603.9481 
 334   0.0000      22.213608       604.4630 
 335   0.0000      22.229812       604.9039 
 336   0.0000      22.262200       605.7853 
 337   0.0000      22.344900       608.0356 
 338   0.0000      22.357810       608.3869 
 339   0.0000      43.707368      1189.3380 
 340   0.0000     128.771372      3504.0472 
 341   0.0000     158.423384      4310.9194 
 342   0.0000     158.475872      4312.3477 
 343   0.0000     158.512030      4313.3316 
 344   0.0000     555.925438     15127.5002 
 345   0.0000    1893.324756     51519.9858 
 346   0.0000    6235.832469    169685.6281 
 347   0.0000   22016.258120    599092.8407 
 348   0.0000   90690.806351   2467822.3025 
 349   0.0000   462517.544956   12585742.2450 
 350   0.0000   1711386.099928   46569183.3106 
 351   0.0000   5079093.303888   138209155.2165 
 352   0.0000   14523636.819585   395208249.8601 

                 SPIN DOWN ORBITALS
  NO   OCC          E(Eh)            E(eV) 
   0   1.0000    -196.607058     -5349.9500 
   1   1.0000     -88.561803     -2409.8892 
   2   1.0000     -88.560842     -2409.8630 
   3   1.0000     -88.558867     -2409.8093 
   4   1.0000     -88.557991     -2409.7854 
   5   1.0000     -21.967088      -597.7549 
   6   1.0000     -18.828632      -512.3531 
   7   1.0000     -18.484818      -502.9975 
   8   1.0000     -18.466617      -502.5022 
   9   1.0000     -18.466193      -502.4906 
  10   1.0000      -9.942817      -270.5578 
  11   1.0000      -9.936487      -270.3856 
  12   1.0000      -9.935039      -270.3461 
  13   1.0000      -9.933823      -270.3131 
  14   1.0000      -9.932321      -270.2722 
  15   1.0000      -9.929394      -270.1925 
  16   1.0000      -7.615572      -207.2303 
  17   1.0000      -7.614996      -207.2146 
  18   1.0000      -7.613191      -207.1655 
  19   1.0000      -7.612189      -207.1382 
  20   1.0000      -5.580951      -151.8654 
  21   1.0000      -5.580224      -151.8456 
  22   1.0000      -5.578676      -151.8035 
  23   1.0000      -5.577499      -151.7715 
  24   1.0000      -5.574737      -151.6963 
  25   1.0000      -5.574234      -151.6826 
  26   1.0000      -5.572754      -151.6423 
  27   1.0000      -5.572543      -151.6366 
  28   1.0000      -5.572169      -151.6264 
  29   1.0000      -5.571739      -151.6147 
  30   1.0000      -5.569885      -151.5643 
  31   1.0000      -5.568844      -151.5360 
  32   1.0000      -2.329916       -63.4002 
  33   1.0000      -1.398744       -38.0618 
  34   1.0000      -1.341117       -36.4936 
  35   1.0000      -1.339522       -36.4503 
  36   1.0000      -0.595088       -16.1932 
  37   1.0000      -0.550183       -14.9712 
  38   1.0000      -0.549772       -14.9601 
  39   1.0000      -0.467995       -12.7348 
  40   1.0000      -0.465220       -12.6593 
  41   1.0000      -0.404002       -10.9935 
  42   1.0000      -0.396600       -10.7920 
  43   1.0000      -0.337644        -9.1878 
  44   1.0000      -0.328224        -8.9314 
  45   1.0000      -0.303254        -8.2520 
  46   1.0000      -0.285351        -7.7648 
  47   1.0000      -0.213959        -5.8221 
  48   1.0000      -0.205926        -5.6035 
  49   1.0000      -0.202043        -5.4979 
  50   1.0000      -0.199255        -5.4220 
  51   1.0000      -0.158458        -4.3119 
  52   1.0000      -0.133569        -3.6346 
  53   1.0000      -0.130840        -3.5603 
  54   1.0000      -0.111573        -3.0361 
  55   1.0000      -0.107605        -2.9281 
  56   1.0000      -0.105760        -2.8779 
  57   1.0000      -0.082271        -2.2387 
  58   1.0000      -0.065903        -1.7933 
  59   1.0000      -0.062751        -1.7075 
  60   1.0000      -0.056537        -1.5384 
  61   1.0000      -0.047064        -1.2807 
  62   1.0000      -0.040241        -1.0950 
  63   1.0000      -0.036431        -0.9914 
  64   1.0000       0.003628         0.0987 
  65   1.0000       0.028090         0.7644 
  66   1.0000       0.034557         0.9403 
  67   1.0000       0.044871         1.2210 
  68   1.0000       0.046794         1.2733 
  69   1.0000       0.060434         1.6445 
  70   1.0000       0.067848         1.8463 
  71   1.0000       0.074694         2.0325 
  72   0.0000       0.234805         6.3894 
  73   0.0000       0.250535         6.8174 
  74   0.0000       0.255965         6.9652 
  75   0.0000       0.260982         7.1017 
  76   0.0000       0.265056         7.2126 
  77   0.0000       0.266528         7.2526 
  78   0.0000       0.272449         7.4137 
  79   0.0000       0.281803         7.6682 
  80   0.0000       0.289516         7.8781 
  81   0.0000       0.293682         7.9915 
  82   0.0000       0.296664         8.0726 
  83   0.0000       0.301867         8.2142 
  84   0.0000       0.304820         8.2946 
  85   0.0000       0.314368         8.5544 
  86   0.0000       0.320110         8.7106 
  87   0.0000       0.326633         8.8881 
  88   0.0000       0.332772         9.0552 
  89   0.0000       0.335078         9.1179 
  90   0.0000       0.354204         9.6384 
  91   0.0000       0.358629         9.7588 
  92   0.0000       0.364563         9.9203 
  93   0.0000       0.380075        10.3424 
  94   0.0000       0.381218        10.3735 
  95   0.0000       0.403248        10.9729 
  96   0.0000       0.412310        11.2195 
  97   0.0000       0.419085        11.4039 
  98   0.0000       0.428395        11.6572 
  99   0.0000       0.433646        11.8001 
 100   0.0000       0.440611        11.9896 
 101   0.0000       0.445995        12.1361 
 102   0.0000       0.448939        12.2163 
 103   0.0000       0.458563        12.4781 
 104   0.0000       0.464245        12.6327 
 105   0.0000       0.471491        12.8299 
 106   0.0000       0.481625        13.1057 
 107   0.0000       0.485200        13.2030 
 108   0.0000       0.496364        13.5067 
 109   0.0000       0.506095        13.7715 
 110   0.0000       0.519063        14.1244 
 111   0.0000       0.532571        14.4920 
 112   0.0000       0.541120        14.7246 
 113   0.0000       0.546413        14.8687 
 114   0.0000       0.557021        15.1573 
 115   0.0000       0.561651        15.2833 
 116   0.0000       0.577282        15.7087 
 117   0.0000       0.581887        15.8339 
 118   0.0000       0.585610        15.9353 
 119   0.0000       0.595542        16.2055 
 120   0.0000       0.610284        16.6067 
 121   0.0000       0.611892        16.6504 
 122   0.0000       0.618911        16.8414 
 123   0.0000       0.629685        17.1346 
 124   0.0000       0.633803        17.2467 
 125   0.0000       0.642352        17.4793 
 126   0.0000       0.645661        17.5693 
 127   0.0000       0.650546        17.7023 
 128   0.0000       0.656656        17.8685 
 129   0.0000       0.666513        18.1367 
 130   0.0000       0.669604        18.2208 
 131   0.0000       0.674770        18.3614 
 132   0.0000       0.675960        18.3938 
 133   0.0000       0.680333        18.5128 
 134   0.0000       0.687263        18.7014 
 135   0.0000       0.690312        18.7844 
 136   0.0000       0.694546        18.8995 
 137   0.0000       0.705299        19.1921 
 138   0.0000       0.709372        19.3030 
 139   0.0000       0.719383        19.5754 
 140   0.0000       0.722704        19.6658 
 141   0.0000       0.728372        19.8200 
 142   0.0000       0.743801        20.2399 
 143   0.0000       0.746784        20.3210 
 144   0.0000       0.759351        20.6630 
 145   0.0000       0.767273        20.8786 
 146   0.0000       0.785046        21.3622 
 147   0.0000       0.803080        21.8529 
 148   0.0000       0.813889        22.1470 
 149   0.0000       0.819347        22.2956 
 150   0.0000       0.830265        22.5927 
 151   0.0000       0.834617        22.7111 
 152   0.0000       0.865304        23.5461 
 153   0.0000       0.872658        23.7462 
 154   0.0000       0.891288        24.2532 
 155   0.0000       0.914353        24.8808 
 156   0.0000       0.924425        25.1549 
 157   0.0000       0.961364        26.1600 
 158   0.0000       0.990207        26.9449 
 159   0.0000       0.999630        27.2013 
 160   0.0000       1.002734        27.2858 
 161   0.0000       1.010740        27.5036 
 162   0.0000       1.016833        27.6694 
 163   0.0000       1.029569        28.0160 
 164   0.0000       1.040231        28.3061 
 165   0.0000       1.052187        28.6315 
 166   0.0000       1.066335        29.0165 
 167   0.0000       1.077804        29.3286 
 168   0.0000       1.095800        29.8182 
 169   0.0000       1.123073        30.5604 
 170   0.0000       1.138116        30.9697 
 171   0.0000       1.156712        31.4757 
 172   0.0000       1.160830        31.5878 
 173   0.0000       1.173717        31.9385 
 174   0.0000       1.179457        32.0947 
 175   0.0000       1.201571        32.6964 
 176   0.0000       1.271277        34.5932 
 177   0.0000       1.282802        34.9068 
 178   0.0000       1.294324        35.2203 
 179   0.0000       1.306372        35.5482 
 180   0.0000       1.328077        36.1388 
 181   0.0000       1.349763        36.7289 
 182   0.0000       1.376975        37.4694 
 183   0.0000       1.391797        37.8727 
 184   0.0000       1.431271        38.9469 
 185   0.0000       1.435283        39.0560 
 186   0.0000       1.447638        39.3922 
 187   0.0000       1.450010        39.4568 
 188   0.0000       1.458540        39.6889 
 189   0.0000       1.525813        41.5195 
 190   0.0000       1.533093        41.7176 
 191   0.0000       1.540376        41.9158 
 192   0.0000       1.555273        42.3211 
 193   0.0000       1.556947        42.3667 
 194   0.0000       1.567378        42.6505 
 195   0.0000       1.570917        42.7468 
 196   0.0000       1.572861        42.7997 
 197   0.0000       1.587785        43.2058 
 198   0.0000       1.620275        44.0899 
 199   0.0000       1.627998        44.3001 
 200   0.0000       1.634468        44.4761 
 201   0.0000       1.635937        44.5161 
 202   0.0000       1.654268        45.0149 
 203   0.0000       1.669692        45.4346 
 204   0.0000       1.682270        45.7769 
 205   0.0000       1.693101        46.0716 
 206   0.0000       1.700060        46.2610 
 207   0.0000       1.715692        46.6863 
 208   0.0000       1.720432        46.8153 
 209   0.0000       1.736343        47.2483 
 210   0.0000       1.745538        47.4985 
 211   0.0000       1.750673        47.6382 
 212   0.0000       1.782722        48.5103 
 213   0.0000       1.797707        48.9181 
 214   0.0000       1.810770        49.2736 
 215   0.0000       1.847705        50.2786 
 216   0.0000       1.850515        50.3551 
 217   0.0000       1.872029        50.9405 
 218   0.0000       1.879326        51.1391 
 219   0.0000       1.911724        52.0206 
 220   0.0000       1.928386        52.4740 
 221   0.0000       1.930281        52.5256 
 222   0.0000       1.937900        52.7329 
 223   0.0000       1.949207        53.0406 
[...]
Average number of grid points per atom       ...      426

Memory available               ... 914.1 MB
Memory needed per perturbation ...  10.7 MB
Perturbations treated per batch... 3
Number of batches              ... 1
     CP-SCF ITERATION   0:   4.3924e-02 (   1.3 sec   0/  3 done)
     CP-SCF ITERATION   1:   2.6564e-03 (   1.4 sec   0/  3 done)
     CP-SCF ITERATION   2:   9.4451e-04 (   1.4 sec   3/  3 done)
                    *** THE CP-SCF HAS CONVERGED ***

Forming final perturbed densities           ... done
Transforming perturbed density to AO basis  ... done

 Raw HFC matrix (all values in MHz): 
 -----------------------------------
                -0.6140               1.3691              -0.7748
                 1.3767              -1.4065              -0.5160
                -0.7790              -0.5228              -2.2436

 A(FC)          -1.4254              -1.4254              -1.4254
 A(SD)           2.1479              -1.0009              -1.1470
 A(ORB+DIA)     -0.0093               0.0076               0.0138    A(PC) =   0.0040
 A(ORB)         -0.0098               0.0079               0.0140    A(PC) =   0.0040
 A(DIA)          0.0005              -0.0003              -0.0002    A(PC) =  -0.0000
             ----------           ----------           ----------
 A(Tot)          0.7132              -2.4187              -2.5586    A(iso)=   -1.4213
 Orientation: 
  X          -0.7657809            0.4562994            0.4531781
  Y          -0.5685513           -0.8096821           -0.1454799
  Z           0.3005478           -0.3690607            0.8794687

Notes:  (1) The A matrix conforms to the "SAI" spin Hamiltonian convention.
        (2) Tensor is right-handed.

 Raw EFG matrix (all values in a.u.**-3):
 -----------------------------------
             0.2535       0.0648      -0.1079
             0.0648      -0.1334      -0.0172
            -0.1079      -0.0172      -0.1201

 V(El)       0.5847       0.7949      -1.3796
 V(Nuc)     -0.7286      -0.9440       1.6726
         ----------   ----------   ----------
 V(Tot)     -0.1439      -0.1491       0.2930 
 Orientation: 
  X       0.1418128    0.2635552   -0.9541634
  Y      -0.9873544   -0.0313348   -0.1554010
  Z      -0.0708553    0.9641352    0.2557787

Note: Tensor is right-handed


 Quadrupole tensor eigenvalues (in MHz;Q= 0.0029 I=  1.0)
  e**2qQ            =     0.196730 MHz 
  e**2qQ/(4I*(2I-1))=     0.049183 MHz 
  eta               =     0.017632
  NOTE: the diagonal representation of the SH term I*Q*I = e**2qQ/(4I(2I-1))*[-(1-eta),-(1+eta),2]

 RHO(0)=      0.447574280 a.u.**-3

 -----------------------------------------------------------
 Nucleus  23H : A:ISTP=    1 I=  0.5 P=533.5514 MHz/au**3
                Q:ISTP=    2 I=  1.0 Q=  0.0029 barn     
 -----------------------------------------------------------
 Solving for nuclear perturbation:
Forming RHS of the CP-SCF equations         ... 
Calc. nucleus orbit integrals (SHARK)       ... done

------------------------------------------------------------------------------
                           ORCA CP-SCF CALCULATION
------------------------------------------------------------------------------

Input orbitals are from        ... input_3.gbw
Input Perturbation             ... input_3.pin.tmp
Wavefunction output            ... input_3.pout.tmp
Perturbation mode              ... Imaginary perturbation
Solver                         ... POPLE
Max. number of iterations      ... 64
Convergence tolerance          ... 1.000e-03
Integral handling              ... Direct
DFT GridXC                     ... 1
COSX GridX                     ... 1
COSX IntAccX                   ... 3.067
COSX Algorithm                 ... Auto
Number of perturbations        ... 3
Number of operators            ... 2
Orbital ranges used for CP-SCF:
 Operator 0:  Orbitals   0... 72  to  73...352
 Operator 1:  Orbitals   0... 71  to  72...352
Variables per perturbation     ... 40672
DFT calculation                         ... on
XC functional terms                     ... off
Hybrid DFT                              ... on
   Exchange mixing (SCF)                ...  0.200
   Exchange mixing (CP-SCF)             ...  0.200
   GGA exch. scaling(SCF)               ...  0.720
   GGA exch. scaling (CP-SCF)           ...  0.720
   GGA corr. scaling (SCF)              ...  0.810
   GGA corr. scaling (CP-SCF)           ...  0.810

CP-SCF GRID
-----------

General Integration Accuracy     IntAcc      ... 3.467
Radial Grid Type                 RadialGrid  ... OptM3 with GC (2021)
Angular Grid (max. ang.)         AngularGrid ... 1 (Lebedev-50)
Angular grid pruning method      GridPruning ... 4 (adaptive)
Weight generation scheme         WeightScheme... Becke
Basis function cutoff            BFCut       ... 1.0000e-10
Integration weight cutoff        WCut        ... 1.0000e-14
Angular grids for H and He will be reduced by one unit
Partially contracted basis set               ... off
Rotationally invariant grid construction     ... off

Total number of grid points                  ...    23567
Total number of batches                      ...      383
Average number of points per batch           ...       61
Average number of grid points per atom       ...      982

CP-SCF GRIDX
------------

General Integration Accuracy     IntAcc      ... 3.067
Radial Grid Type                 RadialGrid  ... OptM3 with GC (2021)
Angular Grid (max. ang.)         AngularGrid ... 1 (Lebedev-50)
Angular grid pruning method      GridPruning ... 4 (adaptive)
Weight generation scheme         WeightScheme... Becke
Basis function cutoff            BFCut       ... 1.0000e-10
Integration weight cutoff        WCut        ... 1.0000e-14
Angular grids for H and He will be reduced by one unit
Partially contracted basis set               ... on
Rotationally invariant grid construction     ... off

Total number of grid points                  ...    10213
Total number of batches                      ...      170
Average number of points per batch           ...       60
Average number of grid points per atom       ...      426

Memory available               ... 913.2 MB
Memory needed per perturbation ...  10.7 MB
Perturbations treated per batch... 3
Number of batches              ... 1
     CP-SCF ITERATION   0:   4.6730e-02 (   1.3 sec   0/  3 done)
     CP-SCF ITERATION   1:   5.5467e-03 (   1.4 sec   0/  3 done)
     CP-SCF ITERATION   2:   1.3582e-03 (   1.4 sec   0/  3 done)
     CP-SCF ITERATION   3:   1.9681e-04 (   1.4 sec   3/  3 done)
                    *** THE CP-SCF HAS CONVERGED ***

Forming final perturbed densities           ... done
Transforming perturbed density to AO basis  ... done

 Raw HFC matrix (all values in MHz): 
 -----------------------------------
                 0.0644               2.3634              -2.0535
                 2.3702               0.4515              -2.4419
                -2.0408              -2.4306               0.3305

 A(FC)           0.2763               0.2763               0.2763
 A(SD)          -2.1636              -2.4667               4.6303
 A(ORB+DIA)      0.0404               0.0203              -0.0433    A(PC) =   0.0058
 A(ORB)          0.0405               0.0205              -0.0445    A(PC) =   0.0055
 A(DIA)         -0.0001              -0.0003               0.0012    A(PC) =   0.0003
             ----------           ----------           ----------
 A(Tot)         -1.8468              -2.1701               4.8634    A(iso)=    0.2821
 Orientation: 
  X           0.6495502            0.5296627            0.5454741
  Y           0.1256002           -0.7823215            0.6100800
  Z           0.7498727           -0.3277660           -0.5746828

Notes:  (1) The A matrix conforms to the "SAI" spin Hamiltonian convention.
        (2) Tensor is right-handed.

 Raw EFG matrix (all values in a.u.**-3):
 -----------------------------------
            -0.0455       0.0597       0.1748
             0.0597      -0.1078       0.1000
             0.1748       0.1000       0.1534

 V(El)       0.4304       0.5563      -0.9867
 V(Nuc)     -0.5721      -0.7038       1.2759
         ----------   ----------   ----------
 V(Tot)     -0.1417      -0.1475       0.2892 
 Orientation: 
  X       0.0581241   -0.8735921    0.4831753
  Y       0.9344921    0.2178809    0.2815179
  Z      -0.3512065    0.4351606    0.8290291

Note: Tensor is right-handed


 Quadrupole tensor eigenvalues (in MHz;Q= 0.0029 I=  1.0)
  e**2qQ            =     0.194206 MHz 
  e**2qQ/(4I*(2I-1))=     0.048552 MHz 
  eta               =     0.020090
  NOTE: the diagonal representation of the SH term I*Q*I = e**2qQ/(4I(2I-1))*[-(1-eta),-(1+eta),2]

 RHO(0)=      0.444856863 a.u.**-3

 -----------------------------------------------------------
 Nucleus   0V : A:ISTP=   51 I=  3.5 P=140.5173 MHz/au**3
                Q:ISTP=   51 I=  3.5 Q= -0.0430 barn     
 -----------------------------------------------------------
 Solving for nuclear perturbation:
Forming RHS of the CP-SCF equations         ... 
Calc. nucleus orbit integrals (SHARK)       ... done

------------------------------------------------------------------------------
                           ORCA CP-SCF CALCULATION
------------------------------------------------------------------------------

Input orbitals are from        ... input_3.gbw
Input Perturbation             ... input_3.pin.tmp
Wavefunction output            ... input_3.pout.tmp
Perturbation mode              ... Imaginary perturbation
Solver                         ... POPLE
Max. number of iterations      ... 64
Convergence tolerance          ... 1.000e-03
Integral handling              ... Direct
DFT GridXC                     ... 1
COSX GridX                     ... 1
COSX IntAccX                   ... 3.067
COSX Algorithm                 ... Auto
Number of perturbations        ... 3
Number of operators            ... 2
Orbital ranges used for CP-SCF:
 Operator 0:  Orbitals   0... 72  to  73...352
 Operator 1:  Orbitals   0... 71  to  72...352
Variables per perturbation     ... 40672
DFT calculation                         ... on
XC functional terms                     ... off
Hybrid DFT                              ... on
   Exchange mixing (SCF)                ...  0.200
   Exchange mixing (CP-SCF)             ...  0.200
   GGA exch. scaling(SCF)               ...  0.720
   GGA exch. scaling (CP-SCF)           ...  0.720
   GGA corr. scaling (SCF)              ...  0.810
   GGA corr. scaling (CP-SCF)           ...  0.810

CP-SCF GRID
-----------

General Integration Accuracy     IntAcc      ... 3.467
Radial Grid Type                 RadialGrid  ... OptM3 with GC (2021)
Angular Grid (max. ang.)         AngularGrid ... 1 (Lebedev-50)
Angular grid pruning method      GridPruning ... 4 (adaptive)
Weight generation scheme         WeightScheme... Becke
Basis function cutoff            BFCut       ... 1.0000e-10
Integration weight cutoff        WCut        ... 1.0000e-14
Angular grids for H and He will be reduced by one unit
Partially contracted basis set               ... off
Rotationally invariant grid construction     ... off

Total number of grid points                  ...    23567
Total number of batches                      ...      383
Average number of points per batch           ...       61
Average number of grid points per atom       ...      982

CP-SCF GRIDX
------------

General Integration Accuracy     IntAcc      ... 3.067
Radial Grid Type                 RadialGrid  ... OptM3 with GC (2021)
Angular Grid (max. ang.)         AngularGrid ... 1 (Lebedev-50)
Angular grid pruning method      GridPruning ... 4 (adaptive)
Weight generation scheme         WeightScheme... Becke
Basis function cutoff            BFCut       ... 1.0000e-10
Integration weight cutoff        WCut        ... 1.0000e-14
Angular grids for H and He will be reduced by one unit
Partially contracted basis set               ... on
Rotationally invariant grid construction     ... off

Total number of grid points                  ...    10213
Total number of batches                      ...      170
Average number of points per batch           ...       60
Average number of grid points per atom       ...      426

Memory available               ... 912.2 MB
Memory needed per perturbation ...  10.7 MB
Perturbations treated per batch... 3
Number of batches              ... 1
     CP-SCF ITERATION   0:   1.3731e+01 (   1.4 sec   0/  3 done)
     CP-SCF ITERATION   1:   2.6636e+00 (   1.4 sec   0/  3 done)
     CP-SCF ITERATION   2:   4.6732e-01 (   1.4 sec   0/  3 done)
     CP-SCF ITERATION   3:   1.0737e-01 (   1.4 sec   0/  3 done)
     CP-SCF ITERATION   4:   2.7522e-02 (   1.4 sec   0/  3 done)
     CP-SCF ITERATION   5:   5.1699e-03 (   1.4 sec   0/  3 done)
     CP-SCF ITERATION   6:   1.0550e-03 (   1.4 sec   2/  3 done)
     CP-SCF ITERATION   7:   1.8145e-04 (   0.9 sec   3/  3 done)
                    *** THE CP-SCF HAS CONVERGED ***

Forming final perturbed densities           ... done
Transforming perturbed density to AO basis  ... done

 Raw HFC matrix (all values in MHz): 
 -----------------------------------
               -94.8169             -14.9286              50.3212
               -14.7322            -114.4970              94.4219
                50.4220              96.5468            -345.7726

 A(FC)        -172.9571            -172.9571            -172.9571
 A(SD)         102.5226              94.5830            -197.1056
 A(ORB+DIA)     -8.3664              -8.4866             -19.3622    A(PC) = -12.0717
 A(ORB)         -8.3667              -8.4865             -19.3622    A(PC) = -12.0718
 A(DIA)          0.0002              -0.0001               0.0000    A(PC) =   0.0000
             ----------           ----------           ----------
 A(Tot)        -78.8009             -86.8607            -389.4249    A(iso)= -185.0288
 Orientation: 
  X           0.4341399            0.8835760            0.1755450
  Y           0.8200262           -0.4682866            0.3290361
  Z           0.3729337            0.0011038           -0.9278573

Notes:  (1) The A matrix conforms to the "SAI" spin Hamiltonian convention.
        (2) Tensor is right-handed.

 Raw EFG matrix (all values in a.u.**-3):
 -----------------------------------
            -0.1439       0.0477      -0.1531
             0.0477      -0.2246      -0.1919
            -0.1531      -0.1919       0.3684

 V(El)      -0.1267      -0.3069       0.4336
 V(Nuc)     -0.0592       0.0256       0.0336
         ----------   ----------   ----------
 V(Tot)     -0.1859      -0.2813       0.4672 
 Orientation: 
  X       0.9669526   -0.0240852   -0.2538161
  Y      -0.0481978    0.9603089   -0.2747432
  Z       0.2503591    0.2778970    0.9274123

Note: Tensor is right-handed


 Quadrupole tensor eigenvalues (in MHz;Q=-0.0430 I=  3.5)
  e**2qQ            =    -4.719911 MHz 
  e**2qQ/(4I*(2I-1))=    -0.056189 MHz 
  eta               =     0.204263
  NOTE: the diagonal representation of the SH term I*Q*I = e**2qQ/(4I(2I-1))*[-(1-eta),-(1+eta),2]

 RHO(0)=   8115.161765612 a.u.**-3


--------------------------------------------------------------------------------
----------------------------------------------------------------------------
                           ORCA EULER ANGLE PROGRAM
----------------------------------------------------------------------------

Only g-tensor available        -->  using g-tensor as reference tensor

Reference tensor               ...  g

g-tensor ordering              ...  |g_min> --> |gx>
                                    |g_mid> --> |gy>
                                    |g_max> --> |gz>

A- and EFG-tensor ordering     ...  the axes |Ax>, |Qx>, |Ay>, etc. are assigned
                                    such that the Euler rotation is minimal. You
                                    can find the respective eigenvalues as Ax,
                                    EFGx, Ay, etc. in the tables below.
                                    The relation of |Ax>, |Ay>,  etc. to Amin, Amid, etc.
                                    (as printed in the ORCA EPR/NMR CALCULATION Output)
                                    is obtained in the detailed printout.

Euler rotation around          ...  z - y - z
   First rotation              -->  by alpha around z
   Second rotation             -->  by beta around y'
   Third rotation              -->  by gamma around z''
   Positive / Negative angle   -->  clockwise / counterclockwise rotation

Plot EFG-tensors                    (-)
Plot HFC-tensors                    (-)
Detailed Printout                   (-)

-------------------------------------------------------------------------
          Euler rotation of hyperfine tensor to g-tensor
-------------------------------------------------------------------------

-------------------------------------------------------------------
 Atom  |   Alpha    Beta    Gamma   |   Ax       Ay       Az 
       |          [degrees]         |           [MHz]         
-------------------------------------------------------------------
  9H      131.9     30.8   -132.5      -1.75     2.51    -1.90
 10H       21.3     44.6    -42.7      -1.15     2.02    -1.15
 11H      -89.1     30.5     83.4      -2.47    -2.18     5.05
 12H      106.0     48.7   -141.6      -0.22     2.22    -0.16
 13H     -146.4     27.7    166.9       2.51    -2.15    -1.67
 14H      -41.8     40.6     11.2      -3.18    -2.98     0.19
 18H      -25.4     19.9     24.9      -2.28    -2.13     0.93
 19H      -16.7     43.5     36.3      -3.17    -3.39     3.05
 20H     -107.9     30.4    108.5      -0.12    -0.14     2.28
 21H       91.7     44.6   -106.0      -0.24     2.12    -0.19
 22H       48.4     35.6    -25.3      -2.56     0.71    -2.42
 23H       75.7     36.0    -33.9      -1.85     4.86    -2.17
  0V      -55.6     50.7     53.4    -389.42   -86.86   -78.80
-------------------------------------------------------------------


-------------------------------------------------------------------------------
    Euler rotation of Electric Field Gradient (EFG) tensor to g-tensor
-------------------------------------------------------------------------------

-------------------------------------------------------------------
 Atom  |   Alpha    Beta    Gamma  |   EFGx     EFGy     EFGz
       |          [degrees]        |         [a.u.**-3]       
-------------------------------------------------------------------
  9H       78.1     34.9   -111.6      0.29    -0.15    -0.14
 10H       83.5     26.8    -42.5      0.28    -0.14    -0.14
 11H      -50.7     25.6     79.3      0.28    -0.14    -0.14
 12H      -38.4     40.4     64.5     -0.14    -0.14     0.28
 13H       -4.0     39.6     29.2      0.28    -0.14    -0.15
 14H       55.3     29.8    -24.4     -0.15    -0.14     0.29
 18H       50.9     21.7    -33.5     -0.15    -0.14     0.29
 19H       21.9     36.5    -15.3      0.29    -0.14    -0.15
 20H      148.1     41.3   -175.6     -0.14    -0.14     0.28
 21H      153.2     26.0    166.7     -0.14     0.28    -0.14
 22H       -2.2     14.5     19.7     -0.15     0.29    -0.14
 23H      -94.7     18.8    129.1      0.29    -0.15    -0.14
  0V      -38.6     28.2     25.3      0.47    -0.19    -0.28
-------------------------------------------------------------------


Maximum memory used throughout the entire EPRNMR-calculation: 146.0 MB

Timings for individual modules:

Sum of individual times         ...      572.159 sec (=   9.536 min)
GTO integral calculation        ...        1.061 sec (=   0.018 min)   0.2 %
Spin-Orbit-Coupling Matrices    ...        3.563 sec (=   0.059 min)   0.6 %
SCF iterations                  ...       53.349 sec (=   0.889 min)   9.3 %
EPR/NMR calculation             ...      514.185 sec (=   8.570 min)  89.9 %
                             ****ORCA TERMINATED NORMALLY****
TOTAL RUN TIME: 0 days 0 hours 9 minutes 33 seconds 118 msec
