
                                 *****************
                                 * O   R   C   A *
                                 *****************

                                            #,                                       
                                            ###                                      
                                            ####                                     
                                            #####                                    
                                            ######                                   
                                           ########,                                 
                                     ,,################,,,,,                         
                               ,,#################################,,                 
                          ,,##########################################,,             
                       ,#########################################, ''#####,          
                    ,#############################################,,   '####,        
                  ,##################################################,,,,####,       
                ,###########''''           ''''###############################       
              ,#####''   ,,,,##########,,,,          '''####'''          '####       
            ,##' ,,,,###########################,,,                        '##       
           ' ,,###''''                  '''############,,,                           
         ,,##''                                '''############,,,,        ,,,,,,###''
      ,#''                                            '''#######################'''  
     '                                                          ''''####''''         
             ,#######,   #######,   ,#######,      ##                                
            ,#'     '#,  ##    ##  ,#'     '#,    #''#        ######   ,####,        
            ##       ##  ##   ,#'  ##            #'  '#       #        #'  '#        
            ##       ##  #######   ##           ,######,      #####,   #    #        
            '#,     ,#'  ##    ##  '#,     ,#' ,#      #,         ##   #,  ,#        
             '#######'   ##     ##  '#######'  #'      '#     #####' # '####'        



                  #######################################################
                  #                        -***-                        #
                  #          Department of theory and spectroscopy      #
                  #    Directorship and core code : Frank Neese         #
                  #        Max Planck Institute fuer Kohlenforschung    #
                  #                Kaiser Wilhelm Platz 1               #
                  #                 D-45470 Muelheim/Ruhr               #
                  #                      Germany                        #
                  #                                                     #
                  #                  All rights reserved                #
                  #                        -***-                        #
                  #######################################################


                         Program Version 5.0.4 -  RELEASE  -


 With contributions from (in alphabetic order):
   Daniel Aravena         : Magnetic Suceptibility
   Michael Atanasov       : Ab Initio Ligand Field Theory (pilot matlab implementation)
   Alexander A. Auer      : GIAO ZORA, VPT2 properties, NMR spectrum
   Ute Becker             : Parallelization
   Giovanni Bistoni       : ED, misc. LED, open-shell LED, HFLD
   Martin Brehm           : Molecular dynamics
   Dmytro Bykov           : SCF Hessian
   Vijay G. Chilkuri      : MRCI spin determinant printing, contributions to CSF-ICE
   Dipayan Datta          : RHF DLPNO-CCSD density
   Achintya Kumar Dutta   : EOM-CC, STEOM-CC
   Dmitry Ganyushin       : Spin-Orbit,Spin-Spin,Magnetic field MRCI
   Miquel Garcia          : C-PCM and meta-GGA Hessian, CC/C-PCM, Gaussian charge scheme
   Yang Guo               : DLPNO-NEVPT2, F12-NEVPT2, CIM, IAO-localization
   Andreas Hansen         : Spin unrestricted coupled pair/coupled cluster methods
   Benjamin Helmich-Paris : MC-RPA, TRAH-SCF, COSX integrals
   Lee Huntington         : MR-EOM, pCC
   Robert Izsak           : Overlap fitted RIJCOSX, COSX-SCS-MP3, EOM
   Marcus Kettner         : VPT2
   Christian Kollmar      : KDIIS, OOCD, Brueckner-CCSD(T), CCSD density, CASPT2, CASPT2-K
   Simone Kossmann        : Meta GGA functionals, TD-DFT gradient, OOMP2, MP2 Hessian
   Martin Krupicka        : Initial AUTO-CI
   Lucas Lang             : DCDCAS
   Marvin Lechner         : AUTO-CI (C++ implementation), FIC-MRCC
   Dagmar Lenk            : GEPOL surface, SMD
   Dimitrios Liakos       : Extrapolation schemes; Compound Job, initial MDCI parallelization
   Dimitrios Manganas     : Further ROCIS development; embedding schemes
   Dimitrios Pantazis     : SARC Basis sets
   Anastasios Papadopoulos: AUTO-CI, single reference methods and gradients
   Taras Petrenko         : DFT Hessian,TD-DFT gradient, ASA, ECA, R-Raman, ABS, FL, XAS/XES, NRVS
   Peter Pinski           : DLPNO-MP2, DLPNO-MP2 Gradient
   Christoph Reimann      : Effective Core Potentials
   Marius Retegan         : Local ZFS, SOC
   Christoph Riplinger    : Optimizer, TS searches, QM/MM, DLPNO-CCSD(T), (RO)-DLPNO pert. Triples
   Tobias Risthaus        : Range-separated hybrids, TD-DFT gradient, RPA, STAB
   Michael Roemelt        : Original ROCIS implementation
   Masaaki Saitow         : Open-shell DLPNO-CCSD energy and density
   Barbara Sandhoefer     : DKH picture change effects
   Avijit Sen             : IP-ROCIS
   Kantharuban Sivalingam : CASSCF convergence, NEVPT2, FIC-MRCI
   Bernardo de Souza      : ESD, SOC TD-DFT
   Georgi Stoychev        : AutoAux, RI-MP2 NMR, DLPNO-MP2 response
   Willem Van den Heuvel  : Paramagnetic NMR
   Boris Wezisla          : Elementary symmetry handling
   Frank Wennmohs         : Technical directorship


 We gratefully acknowledge several colleagues who have allowed us to
 interface, adapt or use parts of their codes:
   Stefan Grimme, W. Hujo, H. Kruse, P. Pracht,  : VdW corrections, initial TS optimization,
                  C. Bannwarth, S. Ehlert          DFT functionals, gCP, sTDA/sTD-DF
   Ed Valeev, F. Pavosevic, A. Kumar             : LibInt (2-el integral package), F12 methods
   Garnet Chan, S. Sharma, J. Yang, R. Olivares  : DMRG
   Ulf Ekstrom                                   : XCFun DFT Library
   Mihaly Kallay                                 : mrcc  (arbitrary order and MRCC methods)
   Jiri Pittner, Ondrej Demel                    : Mk-CCSD
   Frank Weinhold                                : gennbo (NPA and NBO analysis)
   Christopher J. Cramer and Donald G. Truhlar   : smd solvation model
   Lars Goerigk                                  : TD-DFT with DH, B97 family of functionals
   V. Asgeirsson, H. Jonsson                     : NEB implementation
   FAccTs GmbH                                   : IRC, NEB, NEB-TS, DLPNO-Multilevel, CI-OPT
                                                   MM, QMMM, 2- and 3-layer-ONIOM, Crystal-QMMM,
                                                   LR-CPCM, SF, NACMEs, symmetry and pop. for TD-DFT,
                                                   nearIR, NL-DFT gradient (VV10), updates on ESD,
                                                   ML-optimized integration grids
   S Lehtola, MJT Oliveira, MAL Marques          : LibXC Library
   Liviu Ungur et al                             : ANISO software


 Your calculation uses the libint2 library for the computation of 2-el integrals
 For citations please refer to: http://libint.valeyev.net

 Your ORCA version has been built with support for libXC version: 5.1.0
 For citations please refer to: https://tddft.org/programs/libxc/

 This ORCA versions uses:
   CBLAS   interface :  Fast vector & matrix operations
   LAPACKE interface :  Fast linear algebra routines
   SCALAPACK package :  Parallel linear algebra routines
   Shared memory     :  Shared parallel matrices
   BLAS/LAPACK       :  OpenBLAS 0.3.15  USE64BITINT DYNAMIC_ARCH NO_AFFINITY Prescott SINGLE_THREADED
        Core in use  :  Prescott
   Copyright (c) 2011-2014, The OpenBLAS Project


================================================================================

----- Orbital basis set information -----
Your calculation utilizes the basis: TZVP 

The basis set includes element-specific modifications.

Your calculation utilizes the basis: CP(PPP) 

----- AuxJ basis set information -----
Your calculation utilizes the auxiliary basis: def2/J
   F. Weigend, Phys. Chem. Chem. Phys. 8, 1057 (2006).

================================================================================
                                        WARNINGS
                       Please study these warnings very carefully!
================================================================================


WARNING: your system is open-shell and RHF/RKS was chosen
  ===> : WILL SWITCH to UHF/UKS


INFO   : the flag for use of the SHARK integral package has been found!

================================================================================
                                       INPUT FILE
================================================================================
NAME = input_0.inp
|  1> ! nofrozencore ReducedPop printbasis
|  2> ! B3LYP TZVP
|  3> 
|  4> %basis
|  5> newgto V "CP(PPP)" end
|  6> end
|  7> 
|  8> %pal
|  9> nprocs 4
| 10> end
| 11> 
| 12> % sym SymThresh 1e-2 end
| 13> * xyz -2 2 
| 14> V -0.3372367976997017 0.33300026334339883 -0.24627058789972778
| 15> S -1.705872362142309 -1.7945061300293526 -0.3545653059608277
| 16> S -0.6305669332748193 -0.014766875462922203 2.155644156423423
| 17> S 1.2088204557538478 -0.6304493545975025 -1.931652246774417
| 18> S 1.6656087846146643 1.7455518423257494 0.19369024237076057
| 19> O -1.4094823598051087 1.3690482646769342 -0.8353812471005667
| 20> C 0.24666583241804496 1.3538432114845895 3.056489817622596
| 21> C 1.17174471403618 3.0815812651815166 1.3824070292755872
| 22> C 0.07717397456283677 2.7345252204340813 2.4025019488169232
| 23> H 0.8558060612158419 3.9664535282672317 0.8135613017275682
| 24> H 2.086161557892161 3.3573621763915726 1.925598268875986
| 25> H -0.9031643887856975 2.770591932336984 1.9151560093194957
| 26> H 0.076720269524983 3.5219006348875586 3.18143515942548
| 27> H 1.3147580951319124 1.1109295030364794 3.1340422560095176
| 28> H -0.17065014165500678 1.3697797318604505 4.074139902444372
| 29> C -0.35792021739881186 -3.0618698884886264 -0.49181351569556725
| 30> C 0.29186352877179705 -2.010528415127627 -2.760000933079239
| 31> C 0.14520561987622638 -3.291543289031684 -1.9288469773346064
| 32> H 0.8198519319235824 -2.246064607500552 -3.694992768272837
| 33> H -0.7045287017647084 -1.6438694260867872 -3.0173696243822747
| 34> H 1.115438681817 -3.818344031037412 -1.8830124070492265
| 35> H -0.557377678273084 -3.9584816268696565 -2.459666312386147
| 36> H -0.7264741464434514 -4.009163466822313 -0.07981480908046339
| 37> H 0.47255628117585435 -2.738247789836493 0.14027667985025144
| 38> * 
| 39> 
| 40> % eprnmr
| 41> gtensor true
| 42> Nuclei = all H {aiso,adip,aorb,fgrad,rho}
| 43> Nuclei = all V {aiso,adip,aorb,fgrad,rho}
| 44> end
| 45> 
| 46>                          ****END OF INPUT****
================================================================================

------------------------------------------------------------------------------
                            SYMMETRY HANDLING SETUP
------------------------------------------------------------------------------

------------------
SYMMETRY DETECTION
------------------
The point group will now be determined using a tolerance of 1.0000e-02.
Splitting atom subsets according to nuclear charge, mass and basis set.
Splitting atom subsets according to distance from the molecule's center.
Identifying relative distance patterns of the atoms.
Splitting atom subsets according to atoms' relative distance patterns.
Bring atoms of each subset into input order.
The molecule is neither linear nor planar.
There is at least one atom subset not centered around the molecule's center.
The molecule does not have a center of inversion.
Analyzing the first atom subset for its symmetry.
The subset consists of a single off-center atom.
No testing is needed for point group C1.
This point group has been found:    C1
Largest non-degenerate subgroup:    C1


Mass-centered symmetry-perfected Cartesians (point group C1):

Atom          Symmetry-perfected Cartesians (x, y, z; au)
  0      -0.638242165532    0.629721710813   -0.466345283388
  1      -3.224588559473   -3.390682720828   -0.670992642273
  2      -1.192555788595   -0.027462939908    4.072615780411
  3       2.283382630857   -1.190934210926   -3.651255049795
  4       3.146587473576    3.299057345128    0.365060195476
  5      -2.664492626224    2.587568694930   -1.579603091851
  6       0.465173894267    2.558835308545    5.774967369008
  7       2.213319632799    5.823787061186    2.611409373521
  8       0.144880700991    5.167946183492    4.539109402059
  9       1.616282103849    7.495953301922    1.536446736004
 10       3.941317039932    6.344937456337    3.637892054711
 11      -1.707690324315    5.236102391539    3.618159043930
 12       0.144023322724    6.655870081392    6.011079846725
 13       2.483575756556    2.099794925403    5.921520238577
 14      -0.323439008042    2.588950967583    7.698047329483
 15      -0.677328164276   -5.785653136373   -0.930354171043
 16       0.550585162259   -3.798905678487   -5.216607210304
 17       0.273441879073   -6.219672963645   -3.645953858822
 18       1.548338646103   -4.244004576699   -6.983485716273
 19      -1.332323275422   -3.106020604660   -5.702963552313
 20       2.106916652217   -7.215182093183   -3.559339073516
 21      -1.054248140696   -7.480003770372   -4.649057028659
 22      -1.373794155752   -7.575778567846   -0.151789448011
 23       0.892044978687   -5.174095999035    0.264123190475


------------------
SYMMETRY REDUCTION
------------------
ORCA supports only abelian point groups.
It is now checked, if the determined point group is supported:
Point Group ( C1    ) is          ... supported

The point group is C1 - hence turning off symmetry
If this is a round-off problem, please increase the symmetry
        detection tolerance (%method SymThresh)

Storing the symmetry object:
Symmetry file                     ... input_0.sym.tmp
Writing symmetry information      ... done

                       ****************************
                       * Single Point Calculation *
                       ****************************

---------------------------------
CARTESIAN COORDINATES (ANGSTROEM)
---------------------------------
  V     -0.337743    0.333234   -0.246779
  S     -1.706379   -1.794272   -0.355074
  S     -0.631073   -0.014533    2.155135
  S      1.208314   -0.630215   -1.932161
  S      1.665102    1.745786    0.193182
  O     -1.409989    1.369282   -0.835890
  C      0.246159    1.354077    3.055981
  C      1.171238    3.081815    1.381898
  C      0.076668    2.734759    2.401993
  H      0.855300    3.966688    0.813053
  H      2.085655    3.357596    1.925090
  H     -0.903671    2.770826    1.914647
  H      0.076214    3.522135    3.180926
  H      1.314252    1.111164    3.133534
  H     -0.171157    1.370014    4.073631
  C     -0.358427   -3.061636   -0.492322
  C      0.291357   -2.010294   -2.760510
  C      0.144699   -3.291309   -1.929356
  H      0.819346   -2.245830   -3.695501
  H     -0.705035   -1.643635   -3.017878
  H      1.114932   -3.818110   -1.883521
  H     -0.557884   -3.958248   -2.460175
  H     -0.726981   -4.008929   -0.080324
  H      0.472050   -2.738014    0.139768

----------------------------
CARTESIAN COORDINATES (A.U.)
----------------------------
  NO LB      ZA    FRAG     MASS         X           Y           Z
   0 V    23.0000    0    50.940   -0.638242    0.629722   -0.466345
   1 S    16.0000    0    32.060   -3.224589   -3.390683   -0.670993
   2 S    16.0000    0    32.060   -1.192556   -0.027463    4.072616
   3 S    16.0000    0    32.060    2.283383   -1.190934   -3.651255
   4 S    16.0000    0    32.060    3.146587    3.299057    0.365060
   5 O     8.0000    0    15.999   -2.664493    2.587569   -1.579603
   6 C     6.0000    0    12.011    0.465174    2.558835    5.774967
   7 C     6.0000    0    12.011    2.213320    5.823787    2.611409
   8 C     6.0000    0    12.011    0.144881    5.167946    4.539109
   9 H     1.0000    0     1.008    1.616282    7.495953    1.536447
  10 H     1.0000    0     1.008    3.941317    6.344937    3.637892
  11 H     1.0000    0     1.008   -1.707690    5.236102    3.618159
  12 H     1.0000    0     1.008    0.144023    6.655870    6.011080
  13 H     1.0000    0     1.008    2.483576    2.099795    5.921520
  14 H     1.0000    0     1.008   -0.323439    2.588951    7.698047
  15 C     6.0000    0    12.011   -0.677328   -5.785653   -0.930354
  16 C     6.0000    0    12.011    0.550585   -3.798906   -5.216607
  17 C     6.0000    0    12.011    0.273442   -6.219673   -3.645954
  18 H     1.0000    0     1.008    1.548339   -4.244005   -6.983486
  19 H     1.0000    0     1.008   -1.332323   -3.106021   -5.702964
  20 H     1.0000    0     1.008    2.106917   -7.215182   -3.559339
  21 H     1.0000    0     1.008   -1.054248   -7.480004   -4.649057
  22 H     1.0000    0     1.008   -1.373794   -7.575779   -0.151789
  23 H     1.0000    0     1.008    0.892045   -5.174096    0.264123

--------------------------------
INTERNAL COORDINATES (ANGSTROEM)
--------------------------------
 V      0   0   0     0.000000000000     0.00000000     0.00000000
 S      1   0   0     2.532029721006     0.00000000     0.00000000
 S      1   2   0     2.444622463749    81.81522926     0.00000000
 S      1   2   3     2.481741230132    88.93975672   134.15646909
 S      1   2   3     2.490031711054   156.77757928    70.97588600
 O      1   2   3     1.603171037446    99.54170293   249.04286219
 C      3   1   2     1.858535391269   108.35153410   179.43478265
 C      5   1   2     1.855242285637   107.91560801   236.71360280
 C      8   5   1     1.535944871010   116.90587940    31.52978724
 H      8   5   1     1.098363153094   108.95925683   267.82183837
 H      8   5   1     1.098758389317   106.01981912   152.91183644
 H      9   8   5     1.095385858547   109.56429322   281.99647680
 H      9   8   5     1.107563630553   107.86309748   166.08946364
 H      7   3   1     1.098108615812   109.29512222   277.69086628
 H      7   3   1     1.100008313621   106.26137458   161.53549768
 C      2   1   3     1.855268970217   100.62734166   264.75445881
 C      4   1   2     1.852455064329   106.53047873    18.79456577
 C     17   4   1     1.534054936290   115.28759390   285.03524389
 H     17   4   1     1.099299223896   107.59021304   163.02153595
 H     17   4   1     1.092462784071   107.86465956    46.69940624
 H     18  17   4     1.104976028742   109.67252604   286.49949493
 H     18  17   4     1.104626273353   107.73561132   170.50329630
 H     16   2   1     1.096786240076   108.54645231   153.32385951
 H     16   2   1     1.092684992450   107.88400758    37.60239655

---------------------------
INTERNAL COORDINATES (A.U.)
---------------------------
 V      0   0   0     0.000000000000     0.00000000     0.00000000
 S      1   0   0     4.784842735651     0.00000000     0.00000000
 S      1   2   0     4.619666957318    81.81522926     0.00000000
 S      1   2   3     4.689811260211    88.93975672   134.15646909
 S      1   2   3     4.705477998671   156.77757928    70.97588600
 O      1   2   3     3.029554206608    99.54170293   249.04286219
 C      3   1   2     3.512122899699   108.35153410   179.43478265
 C      5   1   2     3.505899831923   107.91560801   236.71360280
 C      8   5   1     2.902515163009   116.90587940    31.52978724
 H      8   5   1     2.075605554937   108.95925683   267.82183837
 H      8   5   1     2.076352443157   106.01981912   152.91183644
 H      9   8   5     2.069979283624   109.56429322   281.99647680
 H      9   8   5     2.092991937636   107.86309748   166.08946364
 H      7   3   1     2.075124549184   109.29512222   277.69086628
 H      7   3   1     2.078714457781   106.26137458   161.53549768
 C      2   1   3     3.505950258472   100.62734166   264.75445881
 C      4   1   2     3.500632746977   106.53047873    18.79456577
 C     17   4   1     2.898943703978   115.28759390   285.03524389
 H     17   4   1     2.077374472396   107.59021304   163.02153595
 H     17   4   1     2.064455473396   107.86465956    46.69940624
 H     18  17   4     2.088102078870   109.67252604   286.49949493
 H     18  17   4     2.087441136971   107.73561132   170.50329630
 H     16   2   1     2.072625621196   108.54645231   153.32385951
 H     16   2   1     2.064875386377   107.88400758    37.60239655

---------------------
BASIS SET INFORMATION
---------------------
There are 5 groups of distinct atoms

 Group   1 Type V   : 17s11p5d1f contracted to 17s7p3d1f pattern {11111111111111111/3311111/311/1}
 Group   2 Type S   : 14s9p1d contracted to 5s4p1d pattern {73211/6111/1}
 Group   3 Type O   : 11s6p1d contracted to 5s3p1d pattern {62111/411/1}
 Group   4 Type C   : 11s6p1d contracted to 5s3p1d pattern {62111/411/1}
 Group   5 Type H   : 5s1p contracted to 3s1p pattern {311/1}

Atom   0V    basis set group =>   1
Atom   1S    basis set group =>   2
Atom   2S    basis set group =>   2
Atom   3S    basis set group =>   2
Atom   4S    basis set group =>   2
Atom   5O    basis set group =>   3
Atom   6C    basis set group =>   4
Atom   7C    basis set group =>   4
Atom   8C    basis set group =>   4
Atom   9H    basis set group =>   5
Atom  10H    basis set group =>   5
Atom  11H    basis set group =>   5
Atom  12H    basis set group =>   5
Atom  13H    basis set group =>   5
Atom  14H    basis set group =>   5
Atom  15C    basis set group =>   4
Atom  16C    basis set group =>   4
Atom  17C    basis set group =>   4
Atom  18H    basis set group =>   5
Atom  19H    basis set group =>   5
Atom  20H    basis set group =>   5
Atom  21H    basis set group =>   5
Atom  22H    basis set group =>   5
Atom  23H    basis set group =>   5

-------------------------
BASIS SET IN INPUT FORMAT
-------------------------

 # Basis set for element : H 
 NewGTO H 
 S 3 
   1      34.0613410000      0.0254393168
   2       5.1235746000      0.1900859340
   3       1.1646626000      0.8524411390
 S 1 
   1       0.3272304100      1.0000000000
 S 1 
   1       0.1030724100      1.0000000000
 P 1 
   1       0.8000000000      1.0000000000
  end;

 # Basis set for element : C 
 NewGTO C 
 S 6 
   1   13575.3496820000      0.0006064601
   2    2035.2333680000      0.0046978985
   3     463.2256235900      0.0243324735
   4     131.2001959800      0.0973999560
   5      42.8530158900      0.3019558443
   6      15.5841857700      0.6623361013
 S 2 
   1       6.2067138500      0.6559530795
   2       2.5764896500      0.3758563390
 S 1 
   1       0.5769633900      1.0000000000
 S 1 
   1       0.2297283100      1.0000000000
 S 1 
   1       0.0951644400      1.0000000000
 P 4 
   1      34.6972322400      0.0113272290
   2       7.9582622800      0.0761696612
   3       2.3780826900      0.3019225154
   4       0.8143320800      0.7278502776
 P 1 
   1       0.2888754700      1.0000000000
 P 1 
   1       0.1005682400      1.0000000000
 D 1 
   1       0.8000000000      1.0000000000
  end;

 # Basis set for element : O 
 NewGTO O 
 S 6 
   1   27032.3826310000      0.0005722654
   2    4052.3871392000      0.0044353333
   3     922.3272271000      0.0230201034
   4     261.2407098900      0.0928224938
   5      85.3546413500      0.2937849971
   6      31.0350352400      0.6740160462
 S 2 
   1      12.2608607300      0.6383993750
   2       4.9987076000      0.3953458663
 S 1 
   1       1.1703108200      1.0000000000
 S 1 
   1       0.4647474100      1.0000000000
 S 1 
   1       0.1850453600      1.0000000000
 P 4 
   1      63.2749548000      0.0120183316
   2      14.6270493800      0.0830054304
   3       4.4501223500      0.3199174388
   4       1.5275799600      0.7071554258
 P 1 
   1       0.5293511800      1.0000000000
 P 1 
   1       0.1747842100      1.0000000000
 D 1 
   1       1.2000000000      1.0000000000
  end;

 # Basis set for element : S 
 NewGTO S 
 S 7 
   1   60700.9281040000      0.0005238013
   2    9102.6106854000      0.0040506304
   3    2071.4166009000      0.0208270003
   4     586.0247682100      0.0814968475
   5     190.5539502100      0.2374911358
   6      67.6303842600      0.4472617145
   7      25.1273069100      0.3489191913
 S 3 
   1     112.5746301000      0.1004556993
   2      34.7955542200      0.4339117282
   3       6.5115556200     -1.2084330582
 S 2 
   1       3.2399032300      0.6749812922
   2       1.5477160900      0.3470879597
 S 1 
   1       0.4054103000      1.0000000000
 S 1 
   1       0.1455065100      1.0000000000
 P 6 
   1     564.3671602700      0.0025564845
   2     133.4262437900      0.0202874255
   3      42.4682711900      0.0927670112
   4      15.6165275800      0.2650208365
   5       6.1093988500      0.4486298663
   6       2.4404160200      0.3596369916
 P 1 
   1       0.8388220100      1.0000000000
 P 1 
   1       0.3128874700      1.0000000000
 P 1 
   1       0.1077010900      1.0000000000
 D 1 
   1       0.5500000000      1.0000000000
  end;

 # Basis set for element : V 
 NewGTO V 
 S 1 
   1  4239814.9912500000      1.0000000000
 S 1 
   1  1695925.9965000001      1.0000000000
 S 1 
   1  678370.3986000001      1.0000000000
 S 1 
   1  271348.1594400000      1.0000000000
 S 1 
   1   40672.0050780000      1.0000000000
 S 1 
   1    9257.0761385000      1.0000000000
 S 1 
   1    2622.7328773000      1.0000000000
 S 1 
   1     858.5948018500      1.0000000000
 S 1 
   1     314.1941865000      1.0000000000
 S 1 
   1     124.4786212700      1.0000000000
 S 1 
   1      50.4693993090      1.0000000000
 S 1 
   1      12.5138469110      1.0000000000
 S 1 
   1       5.3447758082      1.0000000000
 S 1 
   1       1.5755631295      1.0000000000
 S 1 
   1       0.6306903307      1.0000000000
 S 1 
   1       0.0879544416      1.0000000000
 S 1 
   1       0.0342969197      1.0000000000
 P 3 
   1    1450.0319327000     -0.0222847647
   2     343.7504988400     -0.1817959329
   3     110.8252170800     -0.8607412073
 P 3 
   1      41.8224645460     -0.2522537814
   2      17.0880737100     -0.4620379520
   3       7.2613218939     -0.3990010670
 P 1 
   1       2.9458145262      1.0000000000
 P 1 
   1       1.1650209680      1.0000000000
 P 1 
   1       0.4339937839      1.0000000000
 D 3 
   1      27.3603358640      0.0575501019
   2       7.4542765527      0.3023798347
   3       2.4632270217      0.7724212088
 D 1 
   1       0.8249954244      1.0000000000
 D 1 
   1       0.2526297057      1.0000000000
 P 1 
   1       0.1112480000      1.0000000000
 P 1 
   1       0.0363780000      1.0000000000
 F 1 
   1       1.8000000000      1.0000000000
  end;

---------------------------------
AUXILIARY/J BASIS SET INFORMATION
---------------------------------
There are 5 groups of distinct atoms

 Group   1 Type V   : 19s5p5d3f3g contracted to 8s5p5d2f3g pattern {121111111/11111/11111/21/111}
 Group   2 Type S   : 14s5p5d2f1g contracted to 8s4p3d1f1g pattern {71111111/2111/311/2/1}
 Group   3 Type O   : 12s5p4d2f1g contracted to 6s4p3d1f1g pattern {711111/2111/211/2/1}
 Group   4 Type C   : 12s5p4d2f1g contracted to 6s4p3d1f1g pattern {711111/2111/211/2/1}
 Group   5 Type H   : 5s2p1d contracted to 3s1p1d pattern {311/2/1}

Atom   0V    basis set group =>   1
Atom   1S    basis set group =>   2
Atom   2S    basis set group =>   2
Atom   3S    basis set group =>   2
Atom   4S    basis set group =>   2
Atom   5O    basis set group =>   3
Atom   6C    basis set group =>   4
Atom   7C    basis set group =>   4
Atom   8C    basis set group =>   4
Atom   9H    basis set group =>   5
Atom  10H    basis set group =>   5
Atom  11H    basis set group =>   5
Atom  12H    basis set group =>   5
Atom  13H    basis set group =>   5
Atom  14H    basis set group =>   5
Atom  15C    basis set group =>   4
Atom  16C    basis set group =>   4
Atom  17C    basis set group =>   4
Atom  18H    basis set group =>   5
Atom  19H    basis set group =>   5
Atom  20H    basis set group =>   5
Atom  21H    basis set group =>   5
Atom  22H    basis set group =>   5
Atom  23H    basis set group =>   5

-------------------------------------
AUXILIARY/J BASIS SET IN INPUT FORMAT
-------------------------------------

 # Auxiliary/J basis set for element : H 
 NewAuxJGTO H 
 S 3 
   1      15.6752927000      0.1007184237
   2       3.6063578000      0.3404257499
   3       1.2080016000      0.6491996172
 S 1 
   1       0.4726794000      1.0000000000
 S 1 
   1       0.2018100000      1.0000000000
 P 2 
   1       2.0281365000      0.5596620919
   2       0.5358730000      0.5596620919
 D 1 
   1       2.2165124000      1.0000000000
  end;

 # Auxiliary/J basis set for element : C 
 NewAuxJGTO C 
 S 7 
   1    1861.0916331000      0.0134602335
   2     642.9939764000      0.0299160374
   3     235.1105725000      0.1008649584
   4      90.7028894000      0.2370970548
   5      36.7794552000      0.3924037254
   6      15.6046273000      0.3195862154
   7       6.8907294000      0.0530104441
 S 1 
   1       3.1478850000     -1.0000000000
 S 1 
   1       1.4777287000      1.0000000000
 S 1 
   1       0.7076466000      1.0000000000
 S 1 
   1       0.3430122000      1.0000000000
 S 1 
   1       0.1669453000      1.0000000000
 P 2 
   1      13.5472892000     -0.6769313712
   2       5.4669419000     -0.3779500978
 P 1 
   1       2.1751721000      1.0000000000
 P 1 
   1       0.8582194000      1.0000000000
 P 1 
   1       0.3376720000      1.0000000000
 D 2 
   1       5.9287253000     -0.3533329857
   2       1.9809209000     -0.7456525731
 D 1 
   1       0.8055417000     -1.0000000000
 D 1 
   1       0.3531244000     -1.0000000000
 F 2 
   1       1.6755626000      0.6311076882
   2       0.5997536000      0.4968166032
 G 1 
   1       1.0024600000     -1.0000000000
  end;

 # Auxiliary/J basis set for element : O 
 NewAuxJGTO O 
 S 7 
   1    2876.8216605000      0.0168151159
   2    1004.7443032000      0.0340137548
   3     369.7579954000      0.1194951309
   4     142.9442404000      0.2664627624
   5      57.8366425000      0.4202764046
   6      24.3864983000      0.2765077335
   7      10.6622662000      0.0057008815
 S 1 
   1       4.8070437000     -1.0000000000
 S 1 
   1       2.2210770000      1.0000000000
 S 1 
   1       1.0447795000      1.0000000000
 S 1 
   1       0.4968425000      1.0000000000
 S 1 
   1       0.2371384000      1.0000000000
 P 2 
   1      64.2613382000     -0.2731534179
   2      16.3006076000     -0.8168011598
 P 1 
   1       4.3550542000      1.0000000000
 P 1 
   1       1.2019554000      1.0000000000
 P 1 
   1       0.3354196000      1.0000000000
 D 2 
   1       9.2146611000     -0.4661230638
   2       2.8435251000     -0.6600908911
 D 1 
   1       0.9955759000     -1.0000000000
 D 1 
   1       0.3649441000     -1.0000000000
 F 2 
   1       2.6420115000      0.5931563945
   2       0.7345613000      0.5931563945
 G 1 
   1       1.3931000000     -1.0000000000
  end;

 # Auxiliary/J basis set for element : S 
 NewAuxJGTO S 
 S 7 
   1    7399.0303145000      0.0295137551
   2    2710.1675859000      0.0559686311
   3    1034.3279062000      0.1764696370
   4     410.4645411000      0.3577969368
   5     168.9762502000      0.4299293578
   6      71.9687889000      0.1259148089
   7      31.6172683000     -0.0646025788
 S 1 
   1      14.2796836000      1.0000000000
 S 1 
   1       6.6060948000      1.0000000000
 S 1 
   1       3.1181477000      1.0000000000
 S 1 
   1       1.4954039000     -1.0000000000
 S 1 
   1       0.7254779000      1.0000000000
 S 1 
   1       0.3544216000      1.0000000000
 S 1 
   1       0.1735525000      1.0000000000
 P 2 
   1      12.6998799000      1.4059102813
   2       4.4295784000     -1.2124994202
 P 1 
   1       1.5232889000      1.0000000000
 P 1 
   1       0.5194667000     -1.0000000000
 P 1 
   1       0.1766547000     -1.0000000000
 D 3 
   1      16.8546461000      1.0295742104
   2       5.0810461000     -0.7461553923
   3       1.5102323000      0.8357028005
 D 1 
   1       0.4451331000      1.0000000000
 D 1 
   1       0.1308362000      1.0000000000
 F 2 
   1       1.0809860000      0.5572698934
   2       0.4161474000      0.5572698934
 G 1 
   1       0.6707100000     -1.0000000000
  end;

 # Auxiliary/J basis set for element : V 
 NewAuxJGTO V 
 S 12 
   1   11942.0842430000      0.0459866720
   2    2430.7110193000      0.1744615821
   3     841.0764301000      0.2900402792
   4     494.7508273000      0.1411212903
   5     291.0298903000      0.2660697186
   6     171.1940483000      0.0446365706
   7      59.2366916000     -0.0408204801
   8      34.8451117000      0.1394665381
   9      20.4971240000      0.2164746715
  10      12.0571314000      0.0864266611
  11       7.0924300000     -0.0568501658
  12       4.1720176000     -0.0126212852
 S 1 
   1       2.4541279000      1.0000000000
 S 1 
   1       1.4436046000      1.0000000000
 S 1 
   1       0.8491792000      1.0000000000
 S 1 
   1       0.2938336000      1.0000000000
 S 1 
   1       0.1728433000      1.0000000000
 S 1 
   1       0.1016725000      1.0000000000
 S 1 
   1       0.0598074000      1.0000000000
 P 1 
   1      16.7130979000     -1.0000000000
 P 1 
   1       4.7454037000     -1.0000000000
 P 1 
   1       1.3889998000      1.0000000000
 P 1 
   1       0.4142440000     -1.0000000000
 P 1 
   1       0.1243234000      1.0000000000
 D 1 
   1       7.7143225000      1.0000000000
 D 1 
   1       3.1170731000      1.0000000000
 D 1 
   1       1.2767950000     -1.0000000000
 D 1 
   1       0.5273386000      1.0000000000
 D 1 
   1       0.2184050000      1.0000000000
 F 2 
   1       3.1309344000     -1.0825667766
   2       1.0419780000      0.1809223232
 F 1 
   1       0.3559044000      1.0000000000
 G 1 
   1       8.7130110000      1.0000000000
 G 1 
   1       2.7493872000      1.0000000000
 G 1 
   1       0.8775089000      1.0000000000
  end;



           ************************************************************
           *        Program running with 4 parallel MPI-processes     *
           *              working on a common directory               *
           ************************************************************
------------------------------------------------------------------------------
                           ORCA GTO INTEGRAL CALCULATION
                           -- RI-GTO INTEGRALS CHOSEN --
------------------------------------------------------------------------------
------------------------------------------------------------------------------
                   ___                                                        
                  /   \      - P O W E R E D   B Y -                         
                 /     \                                                     
                 |  |  |   _    _      __       _____    __    __             
                 |  |  |  | |  | |    /  \     |  _  \  |  |  /  |          
                  \  \/   | |  | |   /    \    | | | |  |  | /  /          
                 / \  \   | |__| |  /  /\  \   | |_| |  |  |/  /          
                |  |  |   |  __  | /  /__\  \  |    /   |      \           
                |  |  |   | |  | | |   __   |  |    \   |  |\   \          
                \     /   | |  | | |  |  |  |  | |\  \  |  | \   \       
                 \___/    |_|  |_| |__|  |__|  |_| \__\ |__|  \__/        
                                                                              
                      - O R C A' S   B I G   F R I E N D -                    
                                      &                                       
                       - I N T E G R A L  F E E D E R -                       
                                                                              
 v1 FN, 2020, v2 2021                                                         
------------------------------------------------------------------------------


Reading SHARK input file input_0.SHARKINP.tmp ... ok
----------------------
SHARK INTEGRAL PACKAGE
----------------------

Number of atoms                             ...     24
Number of basis functions                   ...    353
Number of shells                            ...    179
Maximum angular momentum                    ...      3
Integral batch strategy                     ... SHARK/LIBINT Hybrid
RI-J (if used) integral strategy            ... SPLIT-RIJ (Revised 2003 algorithm where possible)
Printlevel                                  ...      1
Contraction scheme used                     ... SEGMENTED contraction
Coulomb Range Separation                    ... NOT USED
Exchange Range Separation                   ... NOT USED
Finite Nucleus Model                        ... NOT USED
Auxiliary Coulomb fitting basis             ... AVAILABLE
   # of basis functions in Aux-J            ...    768
   # of shells in Aux-J                     ...    256
   Maximum angular momentum in Aux-J        ...      4
Auxiliary J/K fitting basis                 ... NOT available
Auxiliary Correlation fitting basis         ... NOT available
Auxiliary 'external' fitting basis          ... NOT available
Integral threshold                          ...     1.000000e-10
Primitive cut-off                           ...     1.000000e-11
Primitive pair pre-selection threshold      ...     1.000000e-11

Calculating pre-screening integrals         ... done (  0.0 sec) Dimension = 179
Organizing shell pair data                  ... done (  0.1 sec)
Shell pair information
Total number of shell pairs                 ...     16110
Shell pairs after pre-screening             ...     11589
Total number of primitive shell pairs       ...     54315
Primitive shell pairs kept                  ...     25764
          la=0 lb=0:   3974 shell pairs
          la=1 lb=0:   4429 shell pairs
          la=1 lb=1:   1274 shell pairs
          la=2 lb=0:   1077 shell pairs
          la=2 lb=1:    612 shell pairs
          la=2 lb=2:     85 shell pairs
          la=3 lb=0:     76 shell pairs
          la=3 lb=1:     47 shell pairs
          la=3 lb=2:     14 shell pairs
          la=3 lb=3:      1 shell pairs

Calculating one electron integrals          ... done (  0.0 sec)
Calculating RI/J V-Matrix + Cholesky decomp.... done (  0.0 sec)
Calculating Nuclear repulsion               ... done (  0.0 sec) ENN=   1521.061714352771 Eh

SHARK setup successfully completed in   0.3 seconds

Maximum memory used throughout the entire GTOINT-calculation: 25.5 MB


           ************************************************************
           *        Program running with 4 parallel MPI-processes     *
           *              working on a common directory               *
           ************************************************************
-------------------------------------------------------------------------------
                                 ORCA SCF
-------------------------------------------------------------------------------

------------
SCF SETTINGS
------------
Hamiltonian:
 Density Functional     Method          .... DFT(GTOs)
 Exchange Functional    Exchange        .... B88
   X-Alpha parameter    XAlpha          ....  0.666667
   Becke's b parameter  XBeta           ....  0.004200
 Correlation Functional Correlation     .... LYP
 LDA part of GGA corr.  LDAOpt          .... VWN-5
 Gradients option       PostSCFGGA      .... off
 Hybrid DFT is turned on
   Fraction HF Exchange ScalHFX         ....  0.200000
   Scaling of DF-GGA-X  ScalDFX         ....  0.720000
   Scaling of DF-GGA-C  ScalDFC         ....  0.810000
   Scaling of DF-LDA-C  ScalLDAC        ....  1.000000
   Perturbative correction              ....  0.000000
   Density functional embedding theory  .... OFF
   NL short-range parameter             ....  4.800000
 RI-approximation to the Coulomb term is turned on
   Number of AuxJ basis functions       .... 768
   RIJ-COSX (HFX calculated with COS-X)).... on


General Settings:
 Integral files         IntName         .... input_0
 Hartree-Fock type      HFTyp           .... UHF
 Total Charge           Charge          ....   -2
 Multiplicity           Mult            ....    2
 Number of Electrons    NEL             ....  145
 Basis Dimension        Dim             ....  353
 Nuclear Repulsion      ENuc            ....   1521.0617143528 Eh

Convergence Acceleration:
 DIIS                   CNVDIIS         .... on
   Start iteration      DIISMaxIt       ....    12
   Startup error        DIISStart       ....  0.200000
   # of expansion vecs  DIISMaxEq       ....     5
   Bias factor          DIISBfac        ....   1.050
   Max. coefficient     DIISMaxC        ....  10.000
 Trust-Rad. Augm. Hess. CNVTRAH         .... auto
   Auto Start mean grad. ratio tolernc. ....  1.125000
   Auto Start start iteration           ....    20
   Auto Start num. interpolation iter.  ....    10
   Max. Number of Micro iterations      ....    16
   Max. Number of Macro iterations      .... Maxiter - #DIIS iter
   Number of Davidson start vectors     ....     2
   Converg. threshold I  (grad. norm)   ....   5.000e-05
   Converg. threshold II (energy diff.) ....   1.000e-06
   Grad. Scal. Fac. for Micro threshold ....   0.100
   Minimum threshold for Micro iter.    ....   0.010
   NR start threshold (gradient norm)   ....   0.001
   Initial trust radius                 ....   0.400
   Minimum AH scaling param. (alpha)    ....   1.000
   Maximum AH scaling param. (alpha)    .... 1000.000
   Orbital update algorithm             .... Taylor
   White noise on init. David. guess    .... on
   Maximum white noise                  ....   0.010
   Quad. conv. algorithm                .... NR
 SOSCF                  CNVSOSCF        .... off
 Level Shifting         CNVShift        .... on
   Level shift para.    LevelShift      ....    0.2500
   Turn off err/grad.   ShiftErr        ....    0.0010
 Zerner damping         CNVZerner       .... off
 Static damping         CNVDamp         .... on
   Fraction old density DampFac         ....    0.7000
   Max. Damping (<1)    DampMax         ....    0.9800
   Min. Damping (>=0)   DampMin         ....    0.0000
   Turn off err/grad.   DampErr         ....    0.1000
 Fernandez-Rico         CNVRico         .... off

SCF Procedure:
 Maximum # iterations   MaxIter         ....   125
 SCF integral mode      SCFMode         .... Direct
   Integral package                     .... SHARK and LIBINT hybrid scheme
 Reset frequency        DirectResetFreq ....    20
 Integral Threshold     Thresh          ....  1.000e-10 Eh
 Primitive CutOff       TCut            ....  1.000e-11 Eh

Convergence Tolerance:
 Convergence Check Mode ConvCheckMode   .... Total+1el-Energy
 Convergence forced     ConvForced      .... 0
 Energy Change          TolE            ....  1.000e-06 Eh
 1-El. energy change                    ....  1.000e-03 Eh
 DIIS Error             TolErr          ....  1.000e-06


Diagonalization of the overlap matrix:
Smallest eigenvalue                        ... 2.871e-04
Time for diagonalization                   ...    0.063 sec
Threshold for overlap eigenvalues          ... 1.000e-08
Number of eigenvalues below threshold      ... 0
Time for construction of square roots      ...    0.026 sec
Total time needed                          ...    0.090 sec

Time for model grid setup =    0.226 sec

------------------------------
INITIAL GUESS: MODEL POTENTIAL
------------------------------
Loading Hartree-Fock densities                     ... done
Calculating cut-offs                               ... done
Initializing the effective Hamiltonian             ... done
Setting up the integral package (SHARK)            ... done
Starting the Coulomb interaction                   ... done (   0.2 sec)
Reading the grid                                   ... done
Mapping shells                                     ... done
Starting the XC term evaluation                    ... done (   0.1 sec)
  promolecular density results
     # of electrons  =    142.998128122
     EX              =   -186.849901860
     EC              =     -5.514750085
     EX+EC           =   -192.364651945
Transforming the Hamiltonian                       ... done (   0.0 sec)
Diagonalizing the Hamiltonian                      ... done (   0.0 sec)
Back transforming the eigenvectors                 ... done (   0.0 sec)
Now organizing SCF variables                       ... done
                      ------------------
                      INITIAL GUESS DONE (   0.6 sec)
                      ------------------
-------------------
DFT GRID GENERATION
-------------------

General Integration Accuracy     IntAcc      ... 4.388
Radial Grid Type                 RadialGrid  ... OptM3 with GC (2021)
Angular Grid (max. ang.)         AngularGrid ... 4 (Lebedev-302)
Angular grid pruning method      GridPruning ... 4 (adaptive)
Weight generation scheme         WeightScheme... Becke
Basis function cutoff            BFCut       ... 1.0000e-10
Integration weight cutoff        WCut        ... 1.0000e-14
Angular grids for H and He will be reduced by one unit
Partially contracted basis set               ... off
Rotationally invariant grid construction     ... off

Total number of grid points                  ...   131049
Total number of batches                      ...     2061
Average number of points per batch           ...       63
Average number of grid points per atom       ...     5460
Time for grid setup =    1.059 sec

--------------------
COSX GRID GENERATION
--------------------

GRIDX 1
-------
General Integration Accuracy     IntAcc      ... 3.816
Radial Grid Type                 RadialGrid  ... OptM3 with GC (2021)
Angular Grid (max. ang.)         AngularGrid ... 1 (Lebedev-50)
Angular grid pruning method      GridPruning ... 4 (adaptive)
Weight generation scheme         WeightScheme... Becke
Basis function cutoff            BFCut       ... 1.0000e-10
Integration weight cutoff        WCut        ... 1.0000e-14
Angular grids for H and He will be reduced by one unit
Partially contracted basis set               ... on
Rotationally invariant grid construction     ... off

Total number of grid points                  ...    16449
Total number of batches                      ...      270
Average number of points per batch           ...       60
Average number of grid points per atom       ...      685
UseSFitting                                  ... on

GRIDX 2
-------
General Integration Accuracy     IntAcc      ... 4.020
Radial Grid Type                 RadialGrid  ... OptM3 with GC (2021)
Angular Grid (max. ang.)         AngularGrid ... 2 (Lebedev-110)
Angular grid pruning method      GridPruning ... 4 (adaptive)
Weight generation scheme         WeightScheme... Becke
Basis function cutoff            BFCut       ... 1.0000e-10
Integration weight cutoff        WCut        ... 1.0000e-14
Angular grids for H and He will be reduced by one unit
Partially contracted basis set               ... on
Rotationally invariant grid construction     ... off

Total number of grid points                  ...    34408
Total number of batches                      ...      549
Average number of points per batch           ...       62
Average number of grid points per atom       ...     1434
UseSFitting                                  ... on

GRIDX 3
-------
General Integration Accuracy     IntAcc      ... 4.338
Radial Grid Type                 RadialGrid  ... OptM3 with GC (2021)
Angular Grid (max. ang.)         AngularGrid ... 3 (Lebedev-194)
Angular grid pruning method      GridPruning ... 4 (adaptive)
Weight generation scheme         WeightScheme... Becke
Basis function cutoff            BFCut       ... 1.0000e-10
Integration weight cutoff        WCut        ... 1.0000e-14
Angular grids for H and He will be reduced by one unit
Partially contracted basis set               ... on
Rotationally invariant grid construction     ... off

Total number of grid points                  ...    77464
Total number of batches                      ...     1221
Average number of points per batch           ...       63
Average number of grid points per atom       ...     3228
UseSFitting                                  ... on

Time for X-Grid setup             =    1.034 sec

--------------
SCF ITERATIONS
--------------
ITER       Energy         Delta-E        Max-DP      RMS-DP      [F,P]     Damp
               ***  Starting incremental Fock matrix formation  ***
  0  -2847.0979468864   0.000000000000 0.07511100  0.00108425  0.2262716 0.7000
  1  -2847.3277155648  -0.229768678360 0.10216882  0.00106904  0.1559152 0.7000
                               ***Turning on DIIS***
  2  -2847.4663797958  -0.138664231031 0.05961023  0.00064793  0.1090457 0.7000
  3  -2847.5395237905  -0.073143994676 0.08409656  0.00095062  0.0771283 0.0000
  4  -2847.7115187169  -0.171994926424 0.05513158  0.00048012  0.0105879 0.0000
  5  -2847.7163740573  -0.004855340374 0.01041051  0.00013303  0.0094253 0.0000
  6  -2847.7174248855  -0.001050828208 0.00561332  0.00006643  0.0026307 0.0000
  7  -2847.7176347872  -0.000209901683 0.00293536  0.00003518  0.0012261 0.0000
  8  -2847.7177163228  -0.000081535587 0.00256385  0.00002748  0.0012154 0.0000
  9  -2847.7177707105  -0.000054387740 0.00362242  0.00004497  0.0006001 0.0000
               *** Restarting incremental Fock matrix formation ***
                                   *** Resetting DIIS ***
 10  -2847.7177977815  -0.000027070987 0.00117320  0.00001465  0.0005060 0.0000
 11  -2847.7178065433  -0.000008761766 0.00026090  0.00000370  0.0010279 0.0000
 12  -2847.7178125187  -0.000005975400 0.00053702  0.00000816  0.0002314 0.0000
 13  -2847.7178143835  -0.000001864885 0.00038434  0.00000593  0.0004418 0.0000
 14  -2847.7178197211  -0.000005337523 0.00043641  0.00000710  0.0001482 0.0000
 15  -2847.7178217921  -0.000002071086 0.00012419  0.00000188  0.0000628 0.0000
 16  -2847.7178218557  -0.000000063598 0.00008092  0.00000137  0.0000702 0.0000
                 **** Energy Check signals convergence ****

               *****************************************************
               *                     SUCCESS                       *
               *           SCF CONVERGED AFTER  17 CYCLES          *
               *****************************************************

Old exchange energy                            =    -37.603364407 Eh
New exchange energy                            =    -37.603388157 Eh
Exchange energy change after final integration =     -0.000023750 Eh
Total energy after final integration           =  -2847.717845650 Eh
Final COS-X integration done in                =    11.126 sec

----------------
TOTAL SCF ENERGY
----------------

Total Energy       :        -2847.71784565 Eh          -77490.34211 eV

Components:
Nuclear Repulsion  :         1521.06171435 Eh           41390.19348 eV
Electronic Energy  :        -4368.77956000 Eh         -118880.53560 eV
One Electron Energy:        -6993.00562810 Eh         -190289.35726 eV
Two Electron Energy:         2624.22606810 Eh           71408.82167 eV
Max COSX asymmetry :            0.00000486 Eh               0.00013 eV

Virial components:
Potential Energy   :        -5688.56393950 Eh         -154793.69435 eV
Kinetic Energy     :         2840.84609385 Eh           77303.35224 eV
Virial Ratio       :            2.00241891


DFT components:
N(Alpha)           :       72.999953736209 electrons
N(Beta)            :       71.999954794667 electrons
N(Total)           :      144.999908530875 electrons
E(X)               :     -149.524282982450 Eh       
E(C)               :       -6.524445483576 Eh       
E(XC)              :     -156.048728466026 Eh       
DFET-embed. en.    :        0.000000000000 Eh       

---------------
SCF CONVERGENCE
---------------

  Last Energy change         ...   -4.4231e-08  Tolerance :   1.0000e-06
  Last MAX-Density change    ...    0.0000e+00  Tolerance :   1.0000e-05
  Last RMS-Density change    ...    0.0000e+00  Tolerance :   1.0000e-06
  Last DIIS Error            ...    1.1142e-05  Tolerance :   1.0000e-06

             **** THE GBW FILE WAS UPDATED (input_0.gbw) ****
             **** DENSITY input_0.scfp WAS UPDATED ****
             **** ENERGY FILE WAS UPDATED (input_0.en.tmp) ****
----------------------
UHF SPIN CONTAMINATION
----------------------

Warning: in a DFT calculation there is little theoretical justification to 
         calculate <S**2> as in Hartree-Fock theory. We will do it anyways
         but you should keep in mind that the values have only limited relevance

Expectation value of <S**2>     :     0.765795
Ideal value S*(S+1) for S=0.5   :     0.750000
Deviation                       :     0.015795

             **** THE GBW FILE WAS UPDATED (input_0.gbw) ****
             **** DENSITY input_0.scfp WAS UPDATED ****
----------------
ORBITAL ENERGIES
----------------
                 SPIN UP ORBITALS
  NO   OCC          E(Eh)            E(eV) 
   0   1.0000    -196.606837     -5349.9440 
   1   1.0000     -88.561632     -2409.8845 
   2   1.0000     -88.561599     -2409.8836 
   3   1.0000     -88.558858     -2409.8090 
   4   1.0000     -88.557250     -2409.7653 
   5   1.0000     -21.982258      -598.1676 
   6   1.0000     -18.824332      -512.2361 
   7   1.0000     -18.490022      -503.1391 
   8   1.0000     -18.482876      -502.9446 
   9   1.0000     -18.482793      -502.9424 
  10   1.0000      -9.943139      -270.5666 
  11   1.0000      -9.936286      -270.3801 
  12   1.0000      -9.934977      -270.3445 
  13   1.0000      -9.934311      -270.3264 
  14   1.0000      -9.932828      -270.2860 
  15   1.0000      -9.930407      -270.2201 
  16   1.0000      -7.615709      -207.2340 
  17   1.0000      -7.615431      -207.2264 
  18   1.0000      -7.613055      -207.1618 
  19   1.0000      -7.611489      -207.1191 
  20   1.0000      -5.580914      -151.8644 
  21   1.0000      -5.580846      -151.8626 
  22   1.0000      -5.578532      -151.7996 
  23   1.0000      -5.576752      -151.7511 
  24   1.0000      -5.574682      -151.6948 
  25   1.0000      -5.574241      -151.6828 
  26   1.0000      -5.572975      -151.6484 
  27   1.0000      -5.572618      -151.6386 
  28   1.0000      -5.572087      -151.6242 
  29   1.0000      -5.570720      -151.5870 
  30   1.0000      -5.569989      -151.5671 
  31   1.0000      -5.568541      -151.5277 
  32   1.0000      -2.374887       -64.6240 
  33   1.0000      -1.417406       -38.5696 
  34   1.0000      -1.403107       -38.1805 
  35   1.0000      -1.402487       -38.1636 
  36   1.0000      -0.586859       -15.9692 
  37   1.0000      -0.550312       -14.9748 
  38   1.0000      -0.548878       -14.9357 
  39   1.0000      -0.468620       -12.7518 
  40   1.0000      -0.464402       -12.6370 
  41   1.0000      -0.403507       -10.9800 
  42   1.0000      -0.396160       -10.7801 
  43   1.0000      -0.337339        -9.1795 
  44   1.0000      -0.327649        -8.9158 
  45   1.0000      -0.304153        -8.2764 
  46   1.0000      -0.285485        -7.7684 
  47   1.0000      -0.212584        -5.7847 
  48   1.0000      -0.206432        -5.6173 
  49   1.0000      -0.201418        -5.4809 
  50   1.0000      -0.198374        -5.3980 
  51   1.0000      -0.160035        -4.3548 
  52   1.0000      -0.133118        -3.6223 
  53   1.0000      -0.130821        -3.5598 
  54   1.0000      -0.111797        -3.0422 
  55   1.0000      -0.106828        -2.9069 
  56   1.0000      -0.106260        -2.8915 
  57   1.0000      -0.082137        -2.2351 
  58   1.0000      -0.068277        -1.8579 
  59   1.0000      -0.063297        -1.7224 
  60   1.0000      -0.056237        -1.5303 
  61   1.0000      -0.046270        -1.2591 
  62   1.0000      -0.040766        -1.1093 
  63   1.0000      -0.034854        -0.9484 
  64   1.0000      -0.000402        -0.0110 
  65   1.0000       0.027325         0.7435 
  66   1.0000       0.030838         0.8391 
  67   1.0000       0.037443         1.0189 
  68   1.0000       0.046469         1.2645 
  69   1.0000       0.052792         1.4365 
  70   1.0000       0.063906         1.7390 
  71   1.0000       0.071789         1.9535 
  72   1.0000       0.081655         2.2219 
  73   0.0000       0.233959         6.3664 
  74   0.0000       0.247464         6.7338 
  75   0.0000       0.248636         6.7657 
  76   0.0000       0.251767         6.8509 
  77   0.0000       0.258654         7.0383 
  78   0.0000       0.265401         7.2219 
  79   0.0000       0.278036         7.5658 
  80   0.0000       0.288724         7.8566 
  81   0.0000       0.293050         7.9743 
  82   0.0000       0.294799         8.0219 
  83   0.0000       0.301290         8.1985 
  84   0.0000       0.305815         8.3216 
  85   0.0000       0.311641         8.4802 
  86   0.0000       0.316345         8.6082 
  87   0.0000       0.325873         8.8675 
  88   0.0000       0.332695         9.0531 
  89   0.0000       0.334801         9.1104 
  90   0.0000       0.354079         9.6350 
  91   0.0000       0.358054         9.7431 
  92   0.0000       0.362724         9.8702 
  93   0.0000       0.377346        10.2681 
  94   0.0000       0.378656        10.3038 
  95   0.0000       0.402996        10.9661 
  96   0.0000       0.409669        11.1477 
  97   0.0000       0.416915        11.3448 
  98   0.0000       0.427050        11.6206 
  99   0.0000       0.432245        11.7620 
 100   0.0000       0.440611        11.9896 
 101   0.0000       0.444783        12.1032 
 102   0.0000       0.447480        12.1766 
 103   0.0000       0.456783        12.4297 
 104   0.0000       0.463286        12.6066 
 105   0.0000       0.470473        12.8022 
 106   0.0000       0.479959        13.0604 
 107   0.0000       0.483798        13.1648 
 108   0.0000       0.494890        13.4666 
 109   0.0000       0.504789        13.7360 
 110   0.0000       0.520116        14.1531 
 111   0.0000       0.530964        14.4483 
 112   0.0000       0.540978        14.7208 
 113   0.0000       0.545677        14.8486 
 114   0.0000       0.554661        15.0931 
 115   0.0000       0.562568        15.3082 
 116   0.0000       0.577569        15.7164 
 117   0.0000       0.580682        15.8012 
 118   0.0000       0.583612        15.8809 
 119   0.0000       0.594268        16.1709 
 120   0.0000       0.608258        16.5516 
 121   0.0000       0.611797        16.6478 
 122   0.0000       0.619556        16.8590 
 123   0.0000       0.629771        17.1369 
 124   0.0000       0.632450        17.2099 
 125   0.0000       0.642722        17.4893 
 126   0.0000       0.646290        17.5865 
 127   0.0000       0.653827        17.7915 
 128   0.0000       0.657853        17.9011 
 129   0.0000       0.664740        18.0885 
 130   0.0000       0.668964        18.2034 
 131   0.0000       0.673359        18.3230 
 132   0.0000       0.676406        18.4059 
 133   0.0000       0.679789        18.4980 
 134   0.0000       0.683879        18.6093 
 135   0.0000       0.688431        18.7332 
 136   0.0000       0.696040        18.9402 
 137   0.0000       0.706136        19.2149 
 138   0.0000       0.706839        19.2341 
 139   0.0000       0.716806        19.5053 
 140   0.0000       0.719837        19.5878 
 141   0.0000       0.728471        19.8227 
 142   0.0000       0.736548        20.0425 
 143   0.0000       0.746278        20.3073 
 144   0.0000       0.759309        20.6619 
 145   0.0000       0.771666        20.9981 
 146   0.0000       0.784363        21.3436 
 147   0.0000       0.802013        21.8239 
 148   0.0000       0.812852        22.1188 
 149   0.0000       0.814364        22.1600 
 150   0.0000       0.833283        22.6748 
 151   0.0000       0.837578        22.7917 
 152   0.0000       0.866032        23.5659 
 153   0.0000       0.870765        23.6947 
 154   0.0000       0.890083        24.2204 
 155   0.0000       0.913535        24.8586 
 156   0.0000       0.923373        25.1263 
 157   0.0000       0.954080        25.9618 
 158   0.0000       0.988669        26.9031 
 159   0.0000       0.998644        27.1745 
 160   0.0000       1.000755        27.2319 
 161   0.0000       1.009474        27.4692 
 162   0.0000       1.022227        27.8162 
 163   0.0000       1.031786        28.0763 
 164   0.0000       1.042274        28.3617 
 165   0.0000       1.046250        28.4699 
 166   0.0000       1.066325        29.0162 
 167   0.0000       1.087335        29.5879 
 168   0.0000       1.094927        29.7945 
 169   0.0000       1.118734        30.4423 
 170   0.0000       1.139957        31.0198 
 171   0.0000       1.150108        31.2960 
 172   0.0000       1.158004        31.5109 
 173   0.0000       1.165756        31.7218 
 174   0.0000       1.179061        32.0839 
 175   0.0000       1.201598        32.6971 
 176   0.0000       1.248694        33.9787 
 177   0.0000       1.281136        34.8615 
 178   0.0000       1.296659        35.2839 
 179   0.0000       1.304398        35.4945 
 180   0.0000       1.328904        36.1613 
 181   0.0000       1.345791        36.6208 
 182   0.0000       1.368500        37.2388 
 183   0.0000       1.374248        37.3952 
 184   0.0000       1.430333        38.9213 
 185   0.0000       1.434108        39.0241 
 186   0.0000       1.448662        39.4201 
 187   0.0000       1.454466        39.5780 
 188   0.0000       1.457827        39.6695 
 189   0.0000       1.527062        41.5535 
 190   0.0000       1.530257        41.6404 
 191   0.0000       1.538835        41.8738 
 192   0.0000       1.554752        42.3070 
 193   0.0000       1.555830        42.3363 
 194   0.0000       1.565506        42.5996 
 195   0.0000       1.571109        42.7520 
 196   0.0000       1.572488        42.7896 
 197   0.0000       1.588368        43.2217 
 198   0.0000       1.619951        44.0811 
 199   0.0000       1.625564        44.2338 
 200   0.0000       1.631535        44.3963 
 201   0.0000       1.635378        44.5009 
 202   0.0000       1.654662        45.0256 
 203   0.0000       1.670131        45.4466 
 204   0.0000       1.679742        45.7081 
 205   0.0000       1.690153        45.9914 
 206   0.0000       1.702394        46.3245 
 207   0.0000       1.709964        46.5305 
 208   0.0000       1.715015        46.6679 
 209   0.0000       1.732620        47.1470 
 210   0.0000       1.740795        47.3694 
 211   0.0000       1.748521        47.5797 
 212   0.0000       1.777111        48.3576 
 213   0.0000       1.796521        48.8858 
 214   0.0000       1.804937        49.1148 
 215   0.0000       1.847465        50.2721 
 216   0.0000       1.849047        50.3151 
 217   0.0000       1.867149        50.8077 
 218   0.0000       1.879427        51.1418 
 219   0.0000       1.911431        52.0127 
 220   0.0000       1.926564        52.4245 
 221   0.0000       1.929679        52.5092 
 222   0.0000       1.938764        52.7565 
 223   0.0000       1.949465        53.0476 
 224   0.0000       1.988213        54.1020 
 225   0.0000       2.003119        54.5077 
 226   0.0000       2.010392        54.7055 
 227   0.0000       2.038680        55.4753 
 228   0.0000       2.042990        55.5926 
 229   0.0000       2.052007        55.8380 
 230   0.0000       2.058436        56.0129 
 231   0.0000       2.071934        56.3802 
 232   0.0000       2.093274        56.9609 
 233   0.0000       2.098162        57.0939 
 234   0.0000       2.100513        57.1579 
 235   0.0000       2.132616        58.0314 
 236   0.0000       2.152845        58.5819 
 237   0.0000       2.157387        58.7055 
 238   0.0000       2.167557        58.9822 
 239   0.0000       2.197179        59.7883 
 240   0.0000       2.200277        59.8726 
 241   0.0000       2.208269        60.0901 
 242   0.0000       2.224542        60.5329 
 243   0.0000       2.248913        61.1960 
 244   0.0000       2.254886        61.3586 
 245   0.0000       2.269969        61.7690 
 246   0.0000       2.277226        61.9665 
 247   0.0000       2.295017        62.4506 
 248   0.0000       2.306490        62.7628 
 249   0.0000       2.334681        63.5299 
 250   0.0000       2.343792        63.7778 
 251   0.0000       2.380557        64.7782 
 252   0.0000       2.382504        64.8312 
 253   0.0000       2.390737        65.0553 
 254   0.0000       2.412332        65.6429 
 255   0.0000       2.440187        66.4009 
 256   0.0000       2.460791        66.9615 
 257   0.0000       2.497454        67.9592 
 258   0.0000       2.512818        68.3773 
 259   0.0000       2.517924        68.5162 
 260   0.0000       2.544577        69.2415 
 261   0.0000       2.555172        69.5298 
 262   0.0000       2.579017        70.1786 
 263   0.0000       2.602000        70.8040 
 264   0.0000       2.608835        70.9900 
 265   0.0000       2.621853        71.3443 
 266   0.0000       2.635520        71.7161 
 267   0.0000       2.672283        72.7165 
 268   0.0000       2.689502        73.1851 
 269   0.0000       2.700366        73.4807 
 270   0.0000       2.740790        74.5807 
 271   0.0000       2.765411        75.2507 
 272   0.0000       2.768785        75.3425 
 273   0.0000       2.783570        75.7448 
 274   0.0000       2.812668        76.5366 
 275   0.0000       2.841460        77.3201 
 276   0.0000       2.858796        77.7918 
 277   0.0000       2.865169        77.9652 
 278   0.0000       2.873502        78.1920 
 279   0.0000       2.890627        78.6580 
 280   0.0000       2.894622        78.7667 
 281   0.0000       2.909250        79.1647 
 282   0.0000       2.925533        79.6078 
 283   0.0000       2.932623        79.8007 
 284   0.0000       2.943387        80.0936 
 285   0.0000       2.947501        80.2056 
 286   0.0000       2.967210        80.7419 
 287   0.0000       2.968890        80.7876 
 288   0.0000       2.982075        81.1464 
 289   0.0000       2.994893        81.4952 
 290   0.0000       3.020909        82.2031 
 291   0.0000       3.030733        82.4704 
 292   0.0000       3.036486        82.6270 
 293   0.0000       3.052267        83.0564 
 294   0.0000       3.079558        83.7990 
 295   0.0000       3.106745        84.5388 
 296   0.0000       3.145635        85.5971 
 297   0.0000       3.258288        88.6625 
 298   0.0000       3.274427        89.1017 
 299   0.0000       3.371871        91.7533 
 300   0.0000       3.394900        92.3799 
 301   0.0000       3.448606        93.8413 
 302   0.0000       3.481193        94.7281 
 303   0.0000       3.544178        96.4420 
 304   0.0000       3.547374        96.5290 
 305   0.0000       3.555115        96.7396 
 306   0.0000       3.582804        97.4931 
 307   0.0000       3.600803        97.9828 
 308   0.0000       3.628346        98.7323 
 309   0.0000       3.640897        99.0739 
 310   0.0000       3.654458        99.4429 
 311   0.0000       3.663515        99.6893 
 312   0.0000       3.684976       100.2733 
 313   0.0000       3.871910       105.3600 
 314   0.0000       3.891937       105.9050 
 315   0.0000       3.929759       106.9342 
 316   0.0000       4.043060       110.0173 
 317   0.0000       4.263639       116.0195 
 318   0.0000       4.577909       124.5712 
 319   0.0000       4.593720       125.0015 
 320   0.0000       4.596480       125.0766 
 321   0.0000       4.619530       125.7038 
 322   0.0000       4.648270       126.4859 
 323   0.0000       4.648471       126.4913 
 324   0.0000       5.217695       141.9807 
 325   0.0000       7.036563       191.4746 
 326   0.0000       7.101665       193.2461 
 327   0.0000       7.155473       194.7103 
 328   0.0000      18.838095       512.6106 
 329   0.0000      18.875332       513.6239 
 330   0.0000      19.011904       517.3402 
 331   0.0000      19.055422       518.5244 
 332   0.0000      19.837684       539.8108 
 333   0.0000      22.195763       603.9774 
 334   0.0000      22.212155       604.4235 
 335   0.0000      22.227659       604.8454 
 336   0.0000      22.264430       605.8459 
 337   0.0000      22.341293       607.9375 
 338   0.0000      22.355935       608.3359 
 339   0.0000      43.703289      1189.2269 
 340   0.0000     128.772960      3504.0904 
 341   0.0000     158.422813      4310.9039 
 342   0.0000     158.477301      4312.3866 
 343   0.0000     158.510716      4313.2959 
 344   0.0000     555.926850     15127.5386 
 345   0.0000    1893.326091     51520.0222 
 346   0.0000    6235.833750    169685.6630 
 347   0.0000   22016.259335    599092.8738 
 348   0.0000   90690.807471   2467822.3329 
 349   0.0000   462517.545952   12585742.2721 
 350   0.0000   1711386.100866   46569183.3361 
 351   0.0000   5079093.304786   138209155.2409 
 352   0.0000   14523636.820404   395208249.8824 

                 SPIN DOWN ORBITALS
  NO   OCC          E(Eh)            E(eV) 
   0   1.0000    -196.606980     -5349.9479 
   1   1.0000     -88.561812     -2409.8894 
   2   1.0000     -88.561761     -2409.8880 
   3   1.0000     -88.558966     -2409.8120 
   4   1.0000     -88.557204     -2409.7640 
   5   1.0000     -21.967199      -597.7579 
   6   1.0000     -18.827827      -512.3312 
   7   1.0000     -18.484812      -502.9973 
   8   1.0000     -18.466775      -502.5065 
   9   1.0000     -18.466355      -502.4951 
  10   1.0000      -9.942952      -270.5615 
  11   1.0000      -9.936158      -270.3766 
  12   1.0000      -9.934798      -270.3396 
  13   1.0000      -9.934268      -270.3252 
  14   1.0000      -9.932787      -270.2849 
  15   1.0000      -9.930427      -270.2207 
  16   1.0000      -7.615863      -207.2382 
  17   1.0000      -7.615606      -207.2312 
  18   1.0000      -7.613157      -207.1645 
  19   1.0000      -7.611447      -207.1180 
  20   1.0000      -5.581071      -151.8687 
  21   1.0000      -5.581013      -151.8671 
  22   1.0000      -5.578659      -151.8030 
  23   1.0000      -5.576753      -151.7512 
  24   1.0000      -5.575106      -151.7063 
  25   1.0000      -5.574699      -151.6953 
  26   1.0000      -5.573100      -151.6518 
  27   1.0000      -5.572761      -151.6425 
  28   1.0000      -5.572491      -151.6352 
  29   1.0000      -5.571050      -151.5960 
  30   1.0000      -5.569930      -151.5655 
  31   1.0000      -5.568013      -151.5133 
  32   1.0000      -2.329938       -63.4008 
  33   1.0000      -1.398386       -38.0520 
  34   1.0000      -1.341372       -36.5006 
  35   1.0000      -1.339630       -36.4532 
  36   1.0000      -0.594359       -16.1733 
  37   1.0000      -0.550216       -14.9721 
  38   1.0000      -0.548723       -14.9315 
  39   1.0000      -0.468571       -12.7505 
  40   1.0000      -0.464274       -12.6335 
  41   1.0000      -0.403564       -10.9815 
  42   1.0000      -0.396292       -10.7837 
  43   1.0000      -0.337472        -9.1831 
  44   1.0000      -0.328048        -8.9266 
  45   1.0000      -0.304130        -8.2758 
  46   1.0000      -0.285477        -7.7682 
  47   1.0000      -0.212522        -5.7830 
  48   1.0000      -0.206371        -5.6156 
  49   1.0000      -0.201272        -5.4769 
  50   1.0000      -0.198241        -5.3944 
  51   1.0000      -0.159906        -4.3513 
  52   1.0000      -0.132980        -3.6186 
  53   1.0000      -0.130536        -3.5521 
  54   1.0000      -0.111785        -3.0418 
  55   1.0000      -0.106760        -2.9051 
  56   1.0000      -0.106101        -2.8872 
  57   1.0000      -0.080920        -2.2019 
  58   1.0000      -0.066232        -1.8023 
  59   1.0000      -0.062406        -1.6982 
  60   1.0000      -0.056199        -1.5292 
  61   1.0000      -0.047073        -1.2809 
  62   1.0000      -0.041512        -1.1296 
  63   1.0000      -0.036284        -0.9873 
  64   1.0000       0.004199         0.1143 
  65   1.0000       0.028334         0.7710 
  66   1.0000       0.033924         0.9231 
  67   1.0000       0.045618         1.2413 
  68   1.0000       0.046945         1.2774 
  69   1.0000       0.061714         1.6793 
  70   1.0000       0.068048         1.8517 
  71   1.0000       0.073414         1.9977 
  72   0.0000       0.233620         6.3571 
  73   0.0000       0.250272         6.8103 
  74   0.0000       0.255451         6.9512 
  75   0.0000       0.260377         7.0852 
  76   0.0000       0.264254         7.1907 
  77   0.0000       0.267711         7.2848 
  78   0.0000       0.275712         7.5025 
  79   0.0000       0.281826         7.6689 
  80   0.0000       0.289152         7.8682 
  81   0.0000       0.293630         7.9901 
  82   0.0000       0.296500         8.0682 
  83   0.0000       0.301789         8.2121 
  84   0.0000       0.306592         8.3428 
  85   0.0000       0.313008         8.5174 
  86   0.0000       0.319058         8.6820 
  87   0.0000       0.327005         8.8982 
  88   0.0000       0.333084         9.0637 
  89   0.0000       0.336483         9.1562 
  90   0.0000       0.354210         9.6386 
  91   0.0000       0.358761         9.7624 
  92   0.0000       0.364044         9.9062 
  93   0.0000       0.377904        10.2833 
  94   0.0000       0.378816        10.3081 
  95   0.0000       0.404484        11.0066 
  96   0.0000       0.410485        11.1699 
  97   0.0000       0.419239        11.4081 
  98   0.0000       0.428273        11.6539 
  99   0.0000       0.432449        11.7675 
 100   0.0000       0.441362        12.0101 
 101   0.0000       0.445050        12.1104 
 102   0.0000       0.448453        12.2030 
 103   0.0000       0.457007        12.4358 
 104   0.0000       0.464524        12.6403 
 105   0.0000       0.471437        12.8285 
 106   0.0000       0.481487        13.1019 
 107   0.0000       0.484992        13.1973 
 108   0.0000       0.495540        13.4843 
 109   0.0000       0.506464        13.7816 
 110   0.0000       0.521257        14.1841 
 111   0.0000       0.534376        14.5411 
 112   0.0000       0.543224        14.7819 
 113   0.0000       0.547408        14.8957 
 114   0.0000       0.556691        15.1483 
 115   0.0000       0.564386        15.3577 
 116   0.0000       0.577707        15.7202 
 117   0.0000       0.581735        15.8298 
 118   0.0000       0.584364        15.9014 
 119   0.0000       0.596008        16.2182 
 120   0.0000       0.610522        16.6131 
 121   0.0000       0.611981        16.6528 
 122   0.0000       0.620083        16.8733 
 123   0.0000       0.630341        17.1525 
 124   0.0000       0.633452        17.2371 
 125   0.0000       0.643414        17.5082 
 126   0.0000       0.646930        17.6039 
 127   0.0000       0.654075        17.7983 
 128   0.0000       0.657914        17.9028 
 129   0.0000       0.665316        18.1042 
 130   0.0000       0.669197        18.2098 
 131   0.0000       0.674078        18.3426 
 132   0.0000       0.677050        18.4235 
 133   0.0000       0.680095        18.5063 
 134   0.0000       0.684607        18.6291 
 135   0.0000       0.689474        18.7615 
 136   0.0000       0.696310        18.9476 
 137   0.0000       0.707320        19.2471 
 138   0.0000       0.707977        19.2650 
 139   0.0000       0.717339        19.5198 
 140   0.0000       0.720031        19.5930 
 141   0.0000       0.728793        19.8315 
 142   0.0000       0.736974        20.0541 
 143   0.0000       0.746359        20.3095 
 144   0.0000       0.759236        20.6598 
 145   0.0000       0.772574        21.0228 
 146   0.0000       0.784674        21.3521 
 147   0.0000       0.802786        21.8449 
 148   0.0000       0.812941        22.1212 
 149   0.0000       0.816163        22.2089 
 150   0.0000       0.835014        22.7219 
 151   0.0000       0.838332        22.8122 
 152   0.0000       0.865788        23.5593 
 153   0.0000       0.870236        23.6803 
 154   0.0000       0.891675        24.2637 
 155   0.0000       0.913608        24.8605 
 156   0.0000       0.925617        25.1873 
 157   0.0000       0.955412        25.9981 
 158   0.0000       0.989126        26.9155 
 159   0.0000       0.999936        27.2096 
 160   0.0000       1.001045        27.2398 
 161   0.0000       1.010455        27.4959 
 162   0.0000       1.022701        27.8291 
 163   0.0000       1.032319        28.0908 
 164   0.0000       1.042196        28.3596 
 165   0.0000       1.047182        28.4953 
 166   0.0000       1.068749        29.0821 
 167   0.0000       1.088980        29.6326 
 168   0.0000       1.096479        29.8367 
 169   0.0000       1.119823        30.4719 
 170   0.0000       1.140489        31.0343 
 171   0.0000       1.155537        31.4437 
 172   0.0000       1.160246        31.5719 
 173   0.0000       1.168176        31.7877 
 174   0.0000       1.180426        32.1210 
 175   0.0000       1.203435        32.7471 
 176   0.0000       1.264987        34.4221 
 177   0.0000       1.281454        34.8701 
 178   0.0000       1.299593        35.3637 
 179   0.0000       1.306780        35.5593 
 180   0.0000       1.331118        36.2216 
 181   0.0000       1.348005        36.6811 
 182   0.0000       1.370476        37.2925 
 183   0.0000       1.384478        37.6736 
 184   0.0000       1.430639        38.9297 
 185   0.0000       1.435042        39.0495 
 186   0.0000       1.450223        39.4626 
 187   0.0000       1.455709        39.6119 
 188   0.0000       1.463659        39.8282 
 189   0.0000       1.528495        41.5925 
 190   0.0000       1.530388        41.6440 
 191   0.0000       1.539926        41.9035 
 192   0.0000       1.554998        42.3136 
 193   0.0000       1.556043        42.3421 
 194   0.0000       1.565947        42.6116 
 195   0.0000       1.572156        42.7805 
 196   0.0000       1.572677        42.7947 
 197   0.0000       1.588585        43.2276 
 198   0.0000       1.620274        44.0899 
 199   0.0000       1.626285        44.2535 
 200   0.0000       1.631768        44.4027 
 201   0.0000       1.635779        44.5118 
 202   0.0000       1.655203        45.0403 
 203   0.0000       1.670592        45.4591 
 204   0.0000       1.680755        45.7357 
 205   0.0000       1.691997        46.0416 
 206   0.0000       1.702861        46.3372 
 207   0.0000       1.715903        46.6921 
 208   0.0000       1.718593        46.7653 
 209   0.0000       1.735370        47.2218 
 210   0.0000       1.747302        47.5465 
 211   0.0000       1.752597        47.6906 
 212   0.0000       1.780556        48.4514 
 213   0.0000       1.798984        48.9529 
 214   0.0000       1.810204        49.2582 
 215   0.0000       1.847593        50.2755 
 216   0.0000       1.850153        50.3452 
 217   0.0000       1.868775        50.8520 
 218   0.0000       1.879985        51.1570 
 219   0.0000       1.912110        52.0312 
 220   0.0000       1.926913        52.4340 
 221   0.0000       1.930930        52.5433 
 222   0.0000       1.939246        52.7696 
 223   0.0000       1.952023        53.1172 
 224   0.0000       1.988590        54.1123 
 225   0.0000       2.003227        54.5106 
 226   0.0000       2.012114        54.7524 
 227   0.0000       2.038771        55.4778 
[...]
Memory needed per perturbation ...  15.7 MB
Perturbations treated per batch... 3
Number of batches              ... 1
     CP-SCF ITERATION   0:   4.5381e-02 (   2.5 sec   0/  3 done)
     CP-SCF ITERATION   1:   3.3372e-03 (   2.6 sec   0/  3 done)
     CP-SCF ITERATION   2:   1.0621e-03 (   2.6 sec   2/  3 done)
     CP-SCF ITERATION   3:   1.5472e-04 (   1.6 sec   3/  3 done)
                    *** THE CP-SCF HAS CONVERGED ***

Forming final perturbed densities           ... done
Transforming perturbed density to AO basis  ... done

 Raw HFC matrix (all values in MHz): 
 -----------------------------------
                -2.4231               0.1641              -0.0534
                 0.1730               0.8192              -0.1615
                -0.0492              -0.1613              -2.3224

 A(FC)          -1.3122              -1.3122              -1.3122
 A(SD)           2.1598              -1.0103              -1.1495
 A(ORB+DIA)     -0.0112               0.0074               0.0142    A(PC) =   0.0035
 A(ORB)         -0.0116               0.0077               0.0143    A(PC) =   0.0035
 A(DIA)          0.0005              -0.0003              -0.0002    A(PC) =   0.0000
             ----------           ----------           ----------
 A(Tot)          0.8364              -2.3152              -2.4475    A(iso)=   -1.3088
 Orientation: 
  X          -0.0510645           -0.3543555           -0.9337155
  Y          -0.9973515            0.0665800            0.0292768
  Z           0.0517924            0.9327375           -0.3568168

Notes:  (1) The A matrix conforms to the "SAI" spin Hamiltonian convention.
        (2) Tensor is right-handed.

 Raw EFG matrix (all values in a.u.**-3):
 -----------------------------------
            -0.0975       0.1289      -0.0575
             0.1289       0.1828      -0.1403
            -0.0575      -0.1403      -0.0853

 V(El)       0.5817       0.7966      -1.3783
 V(Nuc)     -0.7260      -0.9460       1.6720
         ----------   ----------   ----------
 V(Tot)     -0.1443      -0.1494       0.2937 
 Orientation: 
  X       0.4152327   -0.8440473    0.3393611
  Y      -0.4918359    0.1055307    0.8642689
  Z      -0.7652969   -0.5257827   -0.3713130

Note: Tensor is right-handed


 Quadrupole tensor eigenvalues (in MHz;Q= 0.0029 I=  1.0)
  e**2qQ            =     0.197215 MHz 
  e**2qQ/(4I*(2I-1))=     0.049304 MHz 
  eta               =     0.017349
  NOTE: the diagonal representation of the SH term I*Q*I = e**2qQ/(4I(2I-1))*[-(1-eta),-(1+eta),2]

 RHO(0)=      0.447647025 a.u.**-3

 -----------------------------------------------------------
 Nucleus  23H : A:ISTP=    1 I=  0.5 P=533.5514 MHz/au**3
                Q:ISTP=    2 I=  1.0 Q=  0.0029 barn     
 -----------------------------------------------------------
 Solving for nuclear perturbation:
Forming RHS of the CP-SCF equations         ... 
Calc. nucleus orbit integrals (SHARK)       ... done

------------------------------------------------------------------------------
                           ORCA CP-SCF CALCULATION
------------------------------------------------------------------------------

Input orbitals are from        ... input_0.gbw
Input Perturbation             ... input_0.pin.tmp
Wavefunction output            ... input_0.pout.tmp
Perturbation mode              ... Imaginary perturbation
Solver                         ... POPLE
Max. number of iterations      ... 64
Convergence tolerance          ... 1.000e-03
Integral handling              ... Direct
DFT GridXC                     ... 1
COSX GridX                     ... 1
COSX IntAccX                   ... 3.067
COSX Algorithm                 ... Auto
Number of perturbations        ... 3
Number of operators            ... 2
Orbital ranges used for CP-SCF:
 Operator 0:  Orbitals   0... 72  to  73...352
 Operator 1:  Orbitals   0... 71  to  72...352
Variables per perturbation     ... 40672
DFT calculation                         ... on
XC functional terms                     ... off
Hybrid DFT                              ... on
   Exchange mixing (SCF)                ...  0.200
   Exchange mixing (CP-SCF)             ...  0.200
   GGA exch. scaling(SCF)               ...  0.720
   GGA exch. scaling (CP-SCF)           ...  0.720
   GGA corr. scaling (SCF)              ...  0.810
   GGA corr. scaling (CP-SCF)           ...  0.810

CP-SCF GRID
-----------

General Integration Accuracy     IntAcc      ... 3.467
Radial Grid Type                 RadialGrid  ... OptM3 with GC (2021)
Angular Grid (max. ang.)         AngularGrid ... 1 (Lebedev-50)
Angular grid pruning method      GridPruning ... 4 (adaptive)
Weight generation scheme         WeightScheme... Becke
Basis function cutoff            BFCut       ... 1.0000e-10
Integration weight cutoff        WCut        ... 1.0000e-14
Angular grids for H and He will be reduced by one unit
Partially contracted basis set               ... off
Rotationally invariant grid construction     ... off

Total number of grid points                  ...    23527
Total number of batches                      ...      380
Average number of points per batch           ...       61
Average number of grid points per atom       ...      980

CP-SCF GRIDX
------------

General Integration Accuracy     IntAcc      ... 3.067
Radial Grid Type                 RadialGrid  ... OptM3 with GC (2021)
Angular Grid (max. ang.)         AngularGrid ... 1 (Lebedev-50)
Angular grid pruning method      GridPruning ... 4 (adaptive)
Weight generation scheme         WeightScheme... Becke
Basis function cutoff            BFCut       ... 1.0000e-10
Integration weight cutoff        WCut        ... 1.0000e-14
Angular grids for H and He will be reduced by one unit
Partially contracted basis set               ... on
Rotationally invariant grid construction     ... off

Total number of grid points                  ...    10202
Total number of batches                      ...      171
Average number of points per batch           ...       59
Average number of grid points per atom       ...      425

Memory available               ... 900.2 MB
Memory needed per perturbation ...  15.7 MB
Perturbations treated per batch... 3
Number of batches              ... 1
     CP-SCF ITERATION   0:   4.7278e-02 (   2.5 sec   0/  3 done)
     CP-SCF ITERATION   1:   7.2715e-03 (   2.6 sec   0/  3 done)
     CP-SCF ITERATION   2:   1.2997e-03 (   2.6 sec   0/  3 done)
     CP-SCF ITERATION   3:   1.7396e-04 (   2.6 sec   3/  3 done)
                    *** THE CP-SCF HAS CONVERGED ***

Forming final perturbed densities           ... done
Transforming perturbed density to AO basis  ... done

 Raw HFC matrix (all values in MHz): 
 -----------------------------------
                -1.1694              -1.8963               0.3823
                -1.9054               4.6445              -0.8980
                 0.3833              -0.8797              -1.8611

 A(FC)           0.5335               0.5335               0.5335
 A(SD)          -2.2677              -2.5864               4.8541
 A(ORB+DIA)      0.0409               0.0211              -0.0484    A(PC) =   0.0045
 A(ORB)          0.0409               0.0213              -0.0497    A(PC) =   0.0042
 A(DIA)         -0.0001              -0.0002               0.0013    A(PC) =   0.0003
             ----------           ----------           ----------
 A(Tot)         -1.6934              -2.0318               5.3392    A(iso)=    0.5380
 Orientation: 
  X           0.8824954           -0.3745959            0.2843936
  Y           0.3136684            0.0182052           -0.9493580
  Z           0.3504481            0.9270094            0.1335649

Notes:  (1) The A matrix conforms to the "SAI" spin Hamiltonian convention.
        (2) Tensor is right-handed.

 Raw EFG matrix (all values in a.u.**-3):
 -----------------------------------
             0.1053       0.0925       0.1905
             0.0925      -0.1064       0.0740
             0.1905       0.0740       0.0011

 V(El)       0.3626       0.6178      -0.9804
 V(Nuc)     -0.5031      -0.7637       1.2668
         ----------   ----------   ----------
 V(Tot)     -0.1404      -0.1460       0.2864 
 Orientation: 
  X       0.5294814    0.3768382    0.7600279
  Y      -0.7945555    0.5341782    0.2886783
  Z      -0.2972053   -0.7567342    0.5822563

Note: Tensor is right-handed


 Quadrupole tensor eigenvalues (in MHz;Q= 0.0029 I=  1.0)
  e**2qQ            =     0.192331 MHz 
  e**2qQ/(4I*(2I-1))=     0.048083 MHz 
  eta               =     0.019359
  NOTE: the diagonal representation of the SH term I*Q*I = e**2qQ/(4I(2I-1))*[-(1-eta),-(1+eta),2]

 RHO(0)=      0.443710588 a.u.**-3

 -----------------------------------------------------------
 Nucleus   0V : A:ISTP=   51 I=  3.5 P=140.5173 MHz/au**3
                Q:ISTP=   51 I=  3.5 Q= -0.0430 barn     
 -----------------------------------------------------------
 Solving for nuclear perturbation:
Forming RHS of the CP-SCF equations         ... 
Calc. nucleus orbit integrals (SHARK)       ... done

------------------------------------------------------------------------------
                           ORCA CP-SCF CALCULATION
------------------------------------------------------------------------------

Input orbitals are from        ... input_0.gbw
Input Perturbation             ... input_0.pin.tmp
Wavefunction output            ... input_0.pout.tmp
Perturbation mode              ... Imaginary perturbation
Solver                         ... POPLE
Max. number of iterations      ... 64
Convergence tolerance          ... 1.000e-03
Integral handling              ... Direct
DFT GridXC                     ... 1
COSX GridX                     ... 1
COSX IntAccX                   ... 3.067
COSX Algorithm                 ... Auto
Number of perturbations        ... 3
Number of operators            ... 2
Orbital ranges used for CP-SCF:
 Operator 0:  Orbitals   0... 72  to  73...352
 Operator 1:  Orbitals   0... 71  to  72...352
Variables per perturbation     ... 40672
DFT calculation                         ... on
XC functional terms                     ... off
Hybrid DFT                              ... on
   Exchange mixing (SCF)                ...  0.200
   Exchange mixing (CP-SCF)             ...  0.200
   GGA exch. scaling(SCF)               ...  0.720
   GGA exch. scaling (CP-SCF)           ...  0.720
   GGA corr. scaling (SCF)              ...  0.810
   GGA corr. scaling (CP-SCF)           ...  0.810

CP-SCF GRID
-----------

General Integration Accuracy     IntAcc      ... 3.467
Radial Grid Type                 RadialGrid  ... OptM3 with GC (2021)
Angular Grid (max. ang.)         AngularGrid ... 1 (Lebedev-50)
Angular grid pruning method      GridPruning ... 4 (adaptive)
Weight generation scheme         WeightScheme... Becke
Basis function cutoff            BFCut       ... 1.0000e-10
Integration weight cutoff        WCut        ... 1.0000e-14
Angular grids for H and He will be reduced by one unit
Partially contracted basis set               ... off
Rotationally invariant grid construction     ... off

Total number of grid points                  ...    23527
Total number of batches                      ...      380
Average number of points per batch           ...       61
Average number of grid points per atom       ...      980

CP-SCF GRIDX
------------

General Integration Accuracy     IntAcc      ... 3.067
Radial Grid Type                 RadialGrid  ... OptM3 with GC (2021)
Angular Grid (max. ang.)         AngularGrid ... 1 (Lebedev-50)
Angular grid pruning method      GridPruning ... 4 (adaptive)
Weight generation scheme         WeightScheme... Becke
Basis function cutoff            BFCut       ... 1.0000e-10
Integration weight cutoff        WCut        ... 1.0000e-14
Angular grids for H and He will be reduced by one unit
Partially contracted basis set               ... on
Rotationally invariant grid construction     ... off

Total number of grid points                  ...    10202
Total number of batches                      ...      171
Average number of points per batch           ...       59
Average number of grid points per atom       ...      425

Memory available               ... 898.3 MB
Memory needed per perturbation ...  15.7 MB
Perturbations treated per batch... 3
Number of batches              ... 1
     CP-SCF ITERATION   0:   1.1943e+01 (   2.7 sec   0/  3 done)
     CP-SCF ITERATION   1:   2.5504e+00 (   2.6 sec   0/  3 done)
     CP-SCF ITERATION   2:   4.7629e-01 (   2.6 sec   0/  3 done)
     CP-SCF ITERATION   3:   1.2899e-01 (   2.6 sec   0/  3 done)
     CP-SCF ITERATION   4:   3.0427e-02 (   2.6 sec   0/  3 done)
     CP-SCF ITERATION   5:   5.0333e-03 (   2.6 sec   0/  3 done)
     CP-SCF ITERATION   6:   1.0585e-03 (   2.6 sec   1/  3 done)
     CP-SCF ITERATION   7:   1.7758e-04 (   2.1 sec   3/  3 done)
                    *** THE CP-SCF HAS CONVERGED ***

Forming final perturbed densities           ... done
Transforming perturbed density to AO basis  ... done

 Raw HFC matrix (all values in MHz): 
 -----------------------------------
              -216.4875             127.8686             -77.6410
               127.2766            -207.6786              81.1107
               -78.9754              82.5036            -131.8426

 A(FC)        -173.2632            -173.2632            -173.2632
 A(SD)         102.3516              94.2730            -196.6246
 A(ORB+DIA)     -8.4121              -8.2454             -19.5615    A(PC) = -12.0730
 A(ORB)         -8.4124              -8.2453             -19.5615    A(PC) = -12.0731
 A(DIA)          0.0002              -0.0001               0.0000    A(PC) =   0.0001
             ----------           ----------           ----------
 A(Tot)        -79.3237             -87.2356            -389.4494    A(iso)= -185.3362
 Orientation: 
  X           0.3165613           -0.6859778            0.6551514
  Y           0.7136288           -0.2827872           -0.6409098
  Z           0.6249183            0.6704221            0.4000140

Notes:  (1) The A matrix conforms to the "SAI" spin Hamiltonian convention.
        (2) Tensor is right-handed.

 Raw EFG matrix (all values in a.u.**-3):
 -----------------------------------
             0.0297      -0.2287       0.1637
            -0.2287       0.0865      -0.2027
             0.1637      -0.2027      -0.1162

 V(El)      -0.1175      -0.2390       0.3565
 V(Nuc)     -0.0534      -0.0060       0.0594
         ----------   ----------   ----------
 V(Tot)     -0.1709      -0.2450       0.4159 
 Orientation: 
  X       0.7879415   -0.1820391    0.5882262
  Y       0.6034265    0.4184518   -0.6788038
  Z      -0.1225755    0.8898089    0.4395627

Note: Tensor is right-handed


 Quadrupole tensor eigenvalues (in MHz;Q=-0.0430 I=  3.5)
  e**2qQ            =    -4.202116 MHz 
  e**2qQ/(4I*(2I-1))=    -0.050025 MHz 
  eta               =     0.178112
  NOTE: the diagonal representation of the SH term I*Q*I = e**2qQ/(4I(2I-1))*[-(1-eta),-(1+eta),2]

 RHO(0)=   8115.157163921 a.u.**-3


--------------------------------------------------------------------------------
----------------------------------------------------------------------------
                           ORCA EULER ANGLE PROGRAM
----------------------------------------------------------------------------

Only g-tensor available        -->  using g-tensor as reference tensor

Reference tensor               ...  g

g-tensor ordering              ...  |g_min> --> |gx>
                                    |g_mid> --> |gy>
                                    |g_max> --> |gz>

A- and EFG-tensor ordering     ...  the axes |Ax>, |Qx>, |Ay>, etc. are assigned
                                    such that the Euler rotation is minimal. You
                                    can find the respective eigenvalues as Ax,
                                    EFGx, Ay, etc. in the tables below.
                                    The relation of |Ax>, |Ay>,  etc. to Amin, Amid, etc.
                                    (as printed in the ORCA EPR/NMR CALCULATION Output)
                                    is obtained in the detailed printout.

Euler rotation around          ...  z - y - z
   First rotation              -->  by alpha around z
   Second rotation             -->  by beta around y'
   Third rotation              -->  by gamma around z''
   Positive / Negative angle   -->  clockwise / counterclockwise rotation

Plot EFG-tensors                    (-)
Plot HFC-tensors                    (-)
Detailed Printout                   (-)

-------------------------------------------------------------------------
          Euler rotation of hyperfine tensor to g-tensor
-------------------------------------------------------------------------

-------------------------------------------------------------------
 Atom  |   Alpha    Beta    Gamma   |   Ax       Ay       Az 
       |          [degrees]         |           [MHz]         
-------------------------------------------------------------------
  9H      118.3     23.4   -112.6      -1.97     2.14    -2.16
 10H      157.4     32.0    174.9      -1.44     1.88    -1.37
 11H      -90.6     33.1     84.9      -2.48    -2.19     4.96
 12H       94.3     43.8   -120.3      -0.18     2.26    -0.08
 13H     -136.2     30.0    160.6       2.49    -2.02    -1.65
 14H      -47.7     42.5     17.7      -2.96    -2.80     0.23
 18H      -51.9     22.9     50.2      -2.50    -2.32     0.86
 19H      -26.0     47.4     51.6      -3.22    -3.57     2.88
 20H     -104.6     38.2    117.0      -0.24    -0.27     2.21
 21H       85.9     37.9    -86.1      -0.11     2.26    -0.05
 22H       39.1     29.1    -10.1      -2.45     0.84    -2.32
 23H      -26.0     30.1    -15.8       5.34    -1.69    -2.03
  0V       50.2     38.5    -66.9    -389.45   -79.32   -87.24
-------------------------------------------------------------------


-------------------------------------------------------------------------------
    Euler rotation of Electric Field Gradient (EFG) tensor to g-tensor
-------------------------------------------------------------------------------

-------------------------------------------------------------------
 Atom  |   Alpha    Beta    Gamma  |   EFGx     EFGy     EFGz
       |          [degrees]        |         [a.u.**-3]       
-------------------------------------------------------------------
  9H       73.8     30.8   -105.7      0.29    -0.15    -0.14
 10H       76.0     28.2    -33.8      0.29    -0.15    -0.14
 11H      -48.6     27.9     81.8      0.28    -0.14    -0.14
 12H      -38.3     43.0     68.7     -0.14    -0.14     0.28
 13H       -8.6     41.6     38.6      0.28    -0.14    -0.15
 14H       54.1     29.9    -16.7     -0.15    -0.14     0.29
 18H       30.7     16.9     -6.9     -0.15    -0.14     0.29
 19H       11.7     33.6      1.5      0.29    -0.14    -0.15
 20H      157.8     44.1   -173.7     -0.14    -0.14     0.28
 21H      164.4     30.6    165.9     -0.14     0.28    -0.14
 22H      -31.0     16.0     56.3     -0.15     0.29    -0.14
 23H      -90.4     33.1    133.7      0.29    -0.15    -0.14
  0V      -46.7     30.0     37.0      0.42    -0.17    -0.24
-------------------------------------------------------------------


Maximum memory used throughout the entire EPRNMR-calculation: 160.2 MB

Timings for individual modules:

Sum of individual times         ...      860.360 sec (=  14.339 min)
GTO integral calculation        ...        0.836 sec (=   0.014 min)   0.1 %
Spin-Orbit-Coupling Matrices    ...        5.253 sec (=   0.088 min)   0.6 %
SCF iterations                  ...       97.836 sec (=   1.631 min)  11.4 %
EPR/NMR calculation             ...      756.435 sec (=  12.607 min)  87.9 %
                             ****ORCA TERMINATED NORMALLY****
TOTAL RUN TIME: 0 days 0 hours 14 minutes 21 seconds 306 msec
