
                                 *****************
                                 * O   R   C   A *
                                 *****************

                                            #,                                       
                                            ###                                      
                                            ####                                     
                                            #####                                    
                                            ######                                   
                                           ########,                                 
                                     ,,################,,,,,                         
                               ,,#################################,,                 
                          ,,##########################################,,             
                       ,#########################################, ''#####,          
                    ,#############################################,,   '####,        
                  ,##################################################,,,,####,       
                ,###########''''           ''''###############################       
              ,#####''   ,,,,##########,,,,          '''####'''          '####       
            ,##' ,,,,###########################,,,                        '##       
           ' ,,###''''                  '''############,,,                           
         ,,##''                                '''############,,,,        ,,,,,,###''
      ,#''                                            '''#######################'''  
     '                                                          ''''####''''         
             ,#######,   #######,   ,#######,      ##                                
            ,#'     '#,  ##    ##  ,#'     '#,    #''#        ######   ,####,        
            ##       ##  ##   ,#'  ##            #'  '#       #        #'  '#        
            ##       ##  #######   ##           ,######,      #####,   #    #        
            '#,     ,#'  ##    ##  '#,     ,#' ,#      #,         ##   #,  ,#        
             '#######'   ##     ##  '#######'  #'      '#     #####' # '####'        



                  #######################################################
                  #                        -***-                        #
                  #          Department of theory and spectroscopy      #
                  #    Directorship and core code : Frank Neese         #
                  #        Max Planck Institute fuer Kohlenforschung    #
                  #                Kaiser Wilhelm Platz 1               #
                  #                 D-45470 Muelheim/Ruhr               #
                  #                      Germany                        #
                  #                                                     #
                  #                  All rights reserved                #
                  #                        -***-                        #
                  #######################################################


                         Program Version 5.0.4 -  RELEASE  -


 With contributions from (in alphabetic order):
   Daniel Aravena         : Magnetic Suceptibility
   Michael Atanasov       : Ab Initio Ligand Field Theory (pilot matlab implementation)
   Alexander A. Auer      : GIAO ZORA, VPT2 properties, NMR spectrum
   Ute Becker             : Parallelization
   Giovanni Bistoni       : ED, misc. LED, open-shell LED, HFLD
   Martin Brehm           : Molecular dynamics
   Dmytro Bykov           : SCF Hessian
   Vijay G. Chilkuri      : MRCI spin determinant printing, contributions to CSF-ICE
   Dipayan Datta          : RHF DLPNO-CCSD density
   Achintya Kumar Dutta   : EOM-CC, STEOM-CC
   Dmitry Ganyushin       : Spin-Orbit,Spin-Spin,Magnetic field MRCI
   Miquel Garcia          : C-PCM and meta-GGA Hessian, CC/C-PCM, Gaussian charge scheme
   Yang Guo               : DLPNO-NEVPT2, F12-NEVPT2, CIM, IAO-localization
   Andreas Hansen         : Spin unrestricted coupled pair/coupled cluster methods
   Benjamin Helmich-Paris : MC-RPA, TRAH-SCF, COSX integrals
   Lee Huntington         : MR-EOM, pCC
   Robert Izsak           : Overlap fitted RIJCOSX, COSX-SCS-MP3, EOM
   Marcus Kettner         : VPT2
   Christian Kollmar      : KDIIS, OOCD, Brueckner-CCSD(T), CCSD density, CASPT2, CASPT2-K
   Simone Kossmann        : Meta GGA functionals, TD-DFT gradient, OOMP2, MP2 Hessian
   Martin Krupicka        : Initial AUTO-CI
   Lucas Lang             : DCDCAS
   Marvin Lechner         : AUTO-CI (C++ implementation), FIC-MRCC
   Dagmar Lenk            : GEPOL surface, SMD
   Dimitrios Liakos       : Extrapolation schemes; Compound Job, initial MDCI parallelization
   Dimitrios Manganas     : Further ROCIS development; embedding schemes
   Dimitrios Pantazis     : SARC Basis sets
   Anastasios Papadopoulos: AUTO-CI, single reference methods and gradients
   Taras Petrenko         : DFT Hessian,TD-DFT gradient, ASA, ECA, R-Raman, ABS, FL, XAS/XES, NRVS
   Peter Pinski           : DLPNO-MP2, DLPNO-MP2 Gradient
   Christoph Reimann      : Effective Core Potentials
   Marius Retegan         : Local ZFS, SOC
   Christoph Riplinger    : Optimizer, TS searches, QM/MM, DLPNO-CCSD(T), (RO)-DLPNO pert. Triples
   Tobias Risthaus        : Range-separated hybrids, TD-DFT gradient, RPA, STAB
   Michael Roemelt        : Original ROCIS implementation
   Masaaki Saitow         : Open-shell DLPNO-CCSD energy and density
   Barbara Sandhoefer     : DKH picture change effects
   Avijit Sen             : IP-ROCIS
   Kantharuban Sivalingam : CASSCF convergence, NEVPT2, FIC-MRCI
   Bernardo de Souza      : ESD, SOC TD-DFT
   Georgi Stoychev        : AutoAux, RI-MP2 NMR, DLPNO-MP2 response
   Willem Van den Heuvel  : Paramagnetic NMR
   Boris Wezisla          : Elementary symmetry handling
   Frank Wennmohs         : Technical directorship


 We gratefully acknowledge several colleagues who have allowed us to
 interface, adapt or use parts of their codes:
   Stefan Grimme, W. Hujo, H. Kruse, P. Pracht,  : VdW corrections, initial TS optimization,
                  C. Bannwarth, S. Ehlert          DFT functionals, gCP, sTDA/sTD-DF
   Ed Valeev, F. Pavosevic, A. Kumar             : LibInt (2-el integral package), F12 methods
   Garnet Chan, S. Sharma, J. Yang, R. Olivares  : DMRG
   Ulf Ekstrom                                   : XCFun DFT Library
   Mihaly Kallay                                 : mrcc  (arbitrary order and MRCC methods)
   Jiri Pittner, Ondrej Demel                    : Mk-CCSD
   Frank Weinhold                                : gennbo (NPA and NBO analysis)
   Christopher J. Cramer and Donald G. Truhlar   : smd solvation model
   Lars Goerigk                                  : TD-DFT with DH, B97 family of functionals
   V. Asgeirsson, H. Jonsson                     : NEB implementation
   FAccTs GmbH                                   : IRC, NEB, NEB-TS, DLPNO-Multilevel, CI-OPT
                                                   MM, QMMM, 2- and 3-layer-ONIOM, Crystal-QMMM,
                                                   LR-CPCM, SF, NACMEs, symmetry and pop. for TD-DFT,
                                                   nearIR, NL-DFT gradient (VV10), updates on ESD,
                                                   ML-optimized integration grids
   S Lehtola, MJT Oliveira, MAL Marques          : LibXC Library
   Liviu Ungur et al                             : ANISO software


 Your calculation uses the libint2 library for the computation of 2-el integrals
 For citations please refer to: http://libint.valeyev.net

 Your ORCA version has been built with support for libXC version: 5.1.0
 For citations please refer to: https://tddft.org/programs/libxc/

 This ORCA versions uses:
   CBLAS   interface :  Fast vector & matrix operations
   LAPACKE interface :  Fast linear algebra routines
   SCALAPACK package :  Parallel linear algebra routines
   Shared memory     :  Shared parallel matrices
   BLAS/LAPACK       :  OpenBLAS 0.3.15  USE64BITINT DYNAMIC_ARCH NO_AFFINITY Prescott SINGLE_THREADED
        Core in use  :  Prescott
   Copyright (c) 2011-2014, The OpenBLAS Project


================================================================================

----- Orbital basis set information -----
Your calculation utilizes the basis: TZVP 

The basis set includes element-specific modifications.

Your calculation utilizes the basis: CP(PPP) 

----- AuxJ basis set information -----
Your calculation utilizes the auxiliary basis: def2/J
   F. Weigend, Phys. Chem. Chem. Phys. 8, 1057 (2006).

================================================================================
                                        WARNINGS
                       Please study these warnings very carefully!
================================================================================


WARNING: your system is open-shell and RHF/RKS was chosen
  ===> : WILL SWITCH to UHF/UKS


INFO   : the flag for use of the SHARK integral package has been found!

================================================================================
                                       INPUT FILE
================================================================================
NAME = input_36.inp
|  1> ! nofrozencore ReducedPop printbasis
|  2> ! B3LYP TZVP
|  3> 
|  4> %basis
|  5> newgto V "CP(PPP)" end
|  6> end
|  7> 
|  8> %pal
|  9> nprocs 4
| 10> end
| 11> 
| 12> % sym SymThresh 1e-2 end
| 13> * xyz -2 2 
| 14> V 0.22604866544019453 -0.3146023726063022 0.3036825319905516
| 15> S -0.2799269155369241 -1.835974057078013 -1.655464030736846
| 16> S 1.6843845621186546 0.74391799058027 -1.3554705996185834
| 17> S -2.1952861905366357 -0.2946336134290007 0.853890878728024
| 18> S 0.13609422716820888 1.8169688517834865 1.5853283705179462
| 19> O 1.0663579562446421 -1.304109414136834 1.2413998987878296
| 20> C 2.535954130366337 2.1785032878697392 -0.558473253646628
| 21> C 1.8932325441530826 2.3105720455051366 1.9436748000123
| 22> C 2.9390401279625613 1.8910266625482623 0.9333520629469846
| 23> H 2.4828497831055416 1.9275097780385515 2.8512404229500783
| 24> H 1.6922449430978963 3.3957906527543327 2.0948740709999494
| 25> H 3.127999755150407 0.8477192183073713 1.3064427133787133
| 26> H 3.8212096034938363 2.492811751682852 1.240554737336628
| 27> H 2.0668052817826146 3.2141058164281255 -0.32190261201702075
| 28> H 3.3169099181354644 2.3073875556197505 -1.3485042273599663
| 29> C -1.9229118958763902 -1.200750399804395 -2.217743620744213
| 30> C -2.8927607895186274 -1.8258074499301986 0.08465840981234385
| 31> C -3.116284599160143 -1.7548173214782639 -1.4295842240844572
| 32> H -3.8459764930009044 -2.0361980159018955 0.5847323965402048
| 33> H -2.2094726732202576 -2.6467966907863034 0.301172449019832
| 34> H -3.9988505086460346 -1.131587894018252 -1.643327473178334
| 35> H -3.343515389468484 -2.7695832497085306 -1.79480782058229
| 36> H -2.049529925210217 -1.4449587906137047 -3.2791615073463496
| 37> H -1.9019242392247477 -0.11380825771706614 -2.1345273496436565
| 38> * 
| 39> 
| 40> % eprnmr
| 41> gtensor true
| 42> Nuclei = all H {aiso,adip,aorb,fgrad,rho}
| 43> Nuclei = all V {aiso,adip,aorb,fgrad,rho}
| 44> end
| 45> 
| 46>                          ****END OF INPUT****
================================================================================

------------------------------------------------------------------------------
                            SYMMETRY HANDLING SETUP
------------------------------------------------------------------------------

------------------
SYMMETRY DETECTION
------------------
The point group will now be determined using a tolerance of 1.0000e-02.
Splitting atom subsets according to nuclear charge, mass and basis set.
Splitting atom subsets according to distance from the molecule's center.
Identifying relative distance patterns of the atoms.
Splitting atom subsets according to atoms' relative distance patterns.
Bring atoms of each subset into input order.
The molecule is neither linear nor planar.
There is at least one atom subset not centered around the molecule's center.
The molecule does not have a center of inversion.
Analyzing the first atom subset for its symmetry.
The subset is an off-center atom pair.
Testing point group C2v.
Test failed.
Testing point group C2.
Test failed.
Testing point group Cs.
Test failed.
Testing point group Cs.
Test failed.
No testing is needed for point group C1.
This point group has been found:    C1
Largest non-degenerate subgroup:    C1


Mass-centered symmetry-perfected Cartesians (point group C1):

Atom          Symmetry-perfected Cartesians (x, y, z; au)
  0       0.427401086685   -0.595740147521    0.574566063771
  1      -0.528754191813   -3.470715979075   -3.127684395997
  2       3.183256542674    1.404573446080   -2.560778969208
  3      -4.148258669629   -0.558004661442    1.614309155703
  4       0.257411833820    3.432345701522    2.996525699268
  5       2.015355514095   -2.465637463601    2.346595078040
  6       4.792489810644    4.115546773707   -1.054672255859
  7       3.577922032341    4.365120556485    3.673702312081
  8       5.554211954519    3.572294681946    1.764469032154
  9       4.692137137800    3.641237778734    5.388752787995
 10       3.198110510033    6.415886519622    3.959427525896
 11       5.911293900272    1.600729338849    2.469508184596
 12       7.221270666978    4.709503691887    2.344997954358
 13       3.905926970776    6.072551936279   -0.607618531853
 14       6.268282372228    4.359102742726   -2.547614433492
 15      -3.633545846801   -2.270317233040   -4.190238831804
 16      -5.466294647071   -3.451503875855    0.160670456132
 17      -5.888693431704   -3.317351974869   -2.700833422241
 18      -7.267611273206   -3.849084426702    1.105673337746
 19      -4.175067236704   -5.002948699969    0.569822694383
 20      -7.556501295768   -2.139619038369   -3.104749626003
 21      -6.318097394582   -5.234981669258   -3.391005997267
 22      -3.872819245859   -2.731804211276   -6.196027951128
 23      -3.593884923536   -0.216294261078   -4.032982869538


------------------
SYMMETRY REDUCTION
------------------
ORCA supports only abelian point groups.
It is now checked, if the determined point group is supported:
Point Group ( C1    ) is          ... supported

The point group is C1 - hence turning off symmetry
If this is a round-off problem, please increase the symmetry
        detection tolerance (%method SymThresh)

Storing the symmetry object:
Symmetry file                     ... input_36.sym.tmp
Writing symmetry information      ... done

                       ****************************
                       * Single Point Calculation *
                       ****************************

---------------------------------
CARTESIAN COORDINATES (ANGSTROEM)
---------------------------------
  V      0.226171   -0.315252    0.304047
  S     -0.279805   -1.836624   -1.655099
  S      1.684507    0.743268   -1.355106
  S     -2.195164   -0.295283    0.854256
  S      0.136216    1.816319    1.585693
  O      1.066480   -1.304759    1.241765
  C      2.536076    2.177854   -0.558109
  C      1.893355    2.309922    1.944040
  C      2.939162    1.890377    0.933717
  H      2.482972    1.926860    2.851605
  H      1.692367    3.395141    2.095239
  H      3.128122    0.847069    1.306807
  H      3.821332    2.492162    1.240919
  H      2.066928    3.213456   -0.321538
  H      3.317032    2.306738   -1.348139
  C     -1.922790   -1.201400   -2.217379
  C     -2.892639   -1.826457    0.085023
  C     -3.116162   -1.755467   -1.429219
  H     -3.845854   -2.036848    0.585097
  H     -2.209350   -2.647446    0.301537
  H     -3.998728   -1.132238   -1.642963
  H     -3.343393   -2.770233   -1.794443
  H     -2.049408   -1.445609   -3.278797
  H     -1.901802   -0.114458   -2.134163

----------------------------
CARTESIAN COORDINATES (A.U.)
----------------------------
  NO LB      ZA    FRAG     MASS         X           Y           Z
   0 V    23.0000    0    50.940    0.427401   -0.595740    0.574566
   1 S    16.0000    0    32.060   -0.528754   -3.470716   -3.127684
   2 S    16.0000    0    32.060    3.183257    1.404573   -2.560779
   3 S    16.0000    0    32.060   -4.148259   -0.558005    1.614309
   4 S    16.0000    0    32.060    0.257412    3.432346    2.996526
   5 O     8.0000    0    15.999    2.015356   -2.465637    2.346595
   6 C     6.0000    0    12.011    4.792490    4.115547   -1.054672
   7 C     6.0000    0    12.011    3.577922    4.365121    3.673702
   8 C     6.0000    0    12.011    5.554212    3.572295    1.764469
   9 H     1.0000    0     1.008    4.692137    3.641238    5.388753
  10 H     1.0000    0     1.008    3.198111    6.415887    3.959428
  11 H     1.0000    0     1.008    5.911294    1.600729    2.469508
  12 H     1.0000    0     1.008    7.221271    4.709504    2.344998
  13 H     1.0000    0     1.008    3.905927    6.072552   -0.607619
  14 H     1.0000    0     1.008    6.268282    4.359103   -2.547614
  15 C     6.0000    0    12.011   -3.633546   -2.270317   -4.190239
  16 C     6.0000    0    12.011   -5.466295   -3.451504    0.160670
  17 C     6.0000    0    12.011   -5.888693   -3.317352   -2.700833
  18 H     1.0000    0     1.008   -7.267611   -3.849084    1.105673
  19 H     1.0000    0     1.008   -4.175067   -5.002949    0.569823
  20 H     1.0000    0     1.008   -7.556501   -2.139619   -3.104750
  21 H     1.0000    0     1.008   -6.318097   -5.234982   -3.391006
  22 H     1.0000    0     1.008   -3.872819   -2.731804   -6.196028
  23 H     1.0000    0     1.008   -3.593885   -0.216294   -4.032983

--------------------------------
INTERNAL COORDINATES (ANGSTROEM)
--------------------------------
 V      0   0   0     0.000000000000     0.00000000     0.00000000
 S      1   0   0     2.531568356791     0.00000000     0.00000000
 S      1   2   0     2.449489346976    81.63389511     0.00000000
 S      1   2   3     2.483141248687    88.93520775   137.54735852
 S      1   2   3     2.488835820424   154.95687056    71.68496269
 O      1   2   3     1.601423663321   100.76012931   250.52361244
 C      3   1   2     1.848894392401   108.51397226   179.75417988
 C      5   1   2     1.859997672418   106.99877899   234.94169029
 C      8   5   1     1.513434459679   116.78360041    30.19146365
 H      8   5   1     1.148068181410   123.29343800   274.14099329
 H      8   5   1     1.113982343148    96.55924227   157.44116631
 H      9   8   5     1.124007472108    98.73668945   275.98533718
 H      9   8   5     1.111189344899   102.35139400   167.26098526
 H      7   3   1     1.161266079658   126.41951315   283.77243953
 H      7   3   1     1.118325550254    96.11567549   164.88633327
 C      2   1   3     1.849071950390   101.91544373   257.79704499
 C      4   1   2     1.850049384488   105.59489684    22.53221351
 C     17   4   1     1.532296722611   115.31171415   282.69086524
 H     17   4   1     1.096794584148   107.26760638   160.52371556
 H     17   4   1     1.089855179668   107.72786012    44.42196573
 H     18  17   4     1.101373542615   109.56606534   285.57572783
 H     18  17   4     1.102166954957   108.35379072   169.22717491
 H     16   2   1     1.096484287846   108.69052162   154.98309309
 H     16   2   1     1.090325020236   107.58728178    39.04531985

---------------------------
INTERNAL COORDINATES (A.U.)
---------------------------
 V      0   0   0     0.000000000000     0.00000000     0.00000000
 S      1   0   0     4.783970883635     0.00000000     0.00000000
 S      1   2   0     4.628864033743    81.63389511     0.00000000
 S      1   2   3     4.692456911862    88.93520775   137.54735852
 S      1   2   3     4.703218092895   154.95687056    71.68496269
 O      1   2   3     3.026252148057   100.76012931   250.52361244
 C      3   1   2     3.493904052180   108.51397226   179.75417988
 C      5   1   2     3.514886210601   106.99877899   234.94169029
 C      8   5   1     2.859976650433   116.78360041    30.19146365
 H      8   5   1     2.169534445933   123.29343800   274.14099329
 H      8   5   1     2.105121546573    96.55924227   157.44116631
 H      9   8   5     2.124066294766    98.73668945   275.98533718
 H      9   8   5     2.099843544790   102.35139400   167.26098526
 H      7   3   1     2.194474859167   126.41951315   283.77243953
 H      7   3   1     2.113329018546    96.11567549   164.88633327
 C      2   1   3     3.494239588153   101.91544373   257.79704499
 C      4   1   2     3.496086670912   105.59489684    22.53221351
 C     17   4   1     2.895621161640   115.31171415   282.69086524
 H     17   4   1     2.072641389208   107.26760638   160.52371556
 H     17   4   1     2.059527815209   107.72786012    44.42196573
 H     18  17   4     2.081294366689   109.56606534   285.57572783
 H     18  17   4     2.082793698727   108.35379072   169.22717491
 H     16   2   1     2.072055014176   108.69052162   154.98309309
 H     16   2   1     2.060415685209   107.58728178    39.04531985

---------------------
BASIS SET INFORMATION
---------------------
There are 5 groups of distinct atoms

 Group   1 Type V   : 17s11p5d1f contracted to 17s7p3d1f pattern {11111111111111111/3311111/311/1}
 Group   2 Type S   : 14s9p1d contracted to 5s4p1d pattern {73211/6111/1}
 Group   3 Type O   : 11s6p1d contracted to 5s3p1d pattern {62111/411/1}
 Group   4 Type C   : 11s6p1d contracted to 5s3p1d pattern {62111/411/1}
 Group   5 Type H   : 5s1p contracted to 3s1p pattern {311/1}

Atom   0V    basis set group =>   1
Atom   1S    basis set group =>   2
Atom   2S    basis set group =>   2
Atom   3S    basis set group =>   2
Atom   4S    basis set group =>   2
Atom   5O    basis set group =>   3
Atom   6C    basis set group =>   4
Atom   7C    basis set group =>   4
Atom   8C    basis set group =>   4
Atom   9H    basis set group =>   5
Atom  10H    basis set group =>   5
Atom  11H    basis set group =>   5
Atom  12H    basis set group =>   5
Atom  13H    basis set group =>   5
Atom  14H    basis set group =>   5
Atom  15C    basis set group =>   4
Atom  16C    basis set group =>   4
Atom  17C    basis set group =>   4
Atom  18H    basis set group =>   5
Atom  19H    basis set group =>   5
Atom  20H    basis set group =>   5
Atom  21H    basis set group =>   5
Atom  22H    basis set group =>   5
Atom  23H    basis set group =>   5

-------------------------
BASIS SET IN INPUT FORMAT
-------------------------

 # Basis set for element : H 
 NewGTO H 
 S 3 
   1      34.0613410000      0.0254393168
   2       5.1235746000      0.1900859340
   3       1.1646626000      0.8524411390
 S 1 
   1       0.3272304100      1.0000000000
 S 1 
   1       0.1030724100      1.0000000000
 P 1 
   1       0.8000000000      1.0000000000
  end;

 # Basis set for element : C 
 NewGTO C 
 S 6 
   1   13575.3496820000      0.0006064601
   2    2035.2333680000      0.0046978985
   3     463.2256235900      0.0243324735
   4     131.2001959800      0.0973999560
   5      42.8530158900      0.3019558443
   6      15.5841857700      0.6623361013
 S 2 
   1       6.2067138500      0.6559530795
   2       2.5764896500      0.3758563390
 S 1 
   1       0.5769633900      1.0000000000
 S 1 
   1       0.2297283100      1.0000000000
 S 1 
   1       0.0951644400      1.0000000000
 P 4 
   1      34.6972322400      0.0113272290
   2       7.9582622800      0.0761696612
   3       2.3780826900      0.3019225154
   4       0.8143320800      0.7278502776
 P 1 
   1       0.2888754700      1.0000000000
 P 1 
   1       0.1005682400      1.0000000000
 D 1 
   1       0.8000000000      1.0000000000
  end;

 # Basis set for element : O 
 NewGTO O 
 S 6 
   1   27032.3826310000      0.0005722654
   2    4052.3871392000      0.0044353333
   3     922.3272271000      0.0230201034
   4     261.2407098900      0.0928224938
   5      85.3546413500      0.2937849971
   6      31.0350352400      0.6740160462
 S 2 
   1      12.2608607300      0.6383993750
   2       4.9987076000      0.3953458663
 S 1 
   1       1.1703108200      1.0000000000
 S 1 
   1       0.4647474100      1.0000000000
 S 1 
   1       0.1850453600      1.0000000000
 P 4 
   1      63.2749548000      0.0120183316
   2      14.6270493800      0.0830054304
   3       4.4501223500      0.3199174388
   4       1.5275799600      0.7071554258
 P 1 
   1       0.5293511800      1.0000000000
 P 1 
   1       0.1747842100      1.0000000000
 D 1 
   1       1.2000000000      1.0000000000
  end;

 # Basis set for element : S 
 NewGTO S 
 S 7 
   1   60700.9281040000      0.0005238013
   2    9102.6106854000      0.0040506304
   3    2071.4166009000      0.0208270003
   4     586.0247682100      0.0814968475
   5     190.5539502100      0.2374911358
   6      67.6303842600      0.4472617145
   7      25.1273069100      0.3489191913
 S 3 
   1     112.5746301000      0.1004556993
   2      34.7955542200      0.4339117282
   3       6.5115556200     -1.2084330582
 S 2 
   1       3.2399032300      0.6749812922
   2       1.5477160900      0.3470879597
 S 1 
   1       0.4054103000      1.0000000000
 S 1 
   1       0.1455065100      1.0000000000
 P 6 
   1     564.3671602700      0.0025564845
   2     133.4262437900      0.0202874255
   3      42.4682711900      0.0927670112
   4      15.6165275800      0.2650208365
   5       6.1093988500      0.4486298663
   6       2.4404160200      0.3596369916
 P 1 
   1       0.8388220100      1.0000000000
 P 1 
   1       0.3128874700      1.0000000000
 P 1 
   1       0.1077010900      1.0000000000
 D 1 
   1       0.5500000000      1.0000000000
  end;

 # Basis set for element : V 
 NewGTO V 
 S 1 
   1  4239814.9912500000      1.0000000000
 S 1 
   1  1695925.9965000001      1.0000000000
 S 1 
   1  678370.3986000001      1.0000000000
 S 1 
   1  271348.1594400000      1.0000000000
 S 1 
   1   40672.0050780000      1.0000000000
 S 1 
   1    9257.0761385000      1.0000000000
 S 1 
   1    2622.7328773000      1.0000000000
 S 1 
   1     858.5948018500      1.0000000000
 S 1 
   1     314.1941865000      1.0000000000
 S 1 
   1     124.4786212700      1.0000000000
 S 1 
   1      50.4693993090      1.0000000000
 S 1 
   1      12.5138469110      1.0000000000
 S 1 
   1       5.3447758082      1.0000000000
 S 1 
   1       1.5755631295      1.0000000000
 S 1 
   1       0.6306903307      1.0000000000
 S 1 
   1       0.0879544416      1.0000000000
 S 1 
   1       0.0342969197      1.0000000000
 P 3 
   1    1450.0319327000     -0.0222847647
   2     343.7504988400     -0.1817959329
   3     110.8252170800     -0.8607412073
 P 3 
   1      41.8224645460     -0.2522537814
   2      17.0880737100     -0.4620379520
   3       7.2613218939     -0.3990010670
 P 1 
   1       2.9458145262      1.0000000000
 P 1 
   1       1.1650209680      1.0000000000
 P 1 
   1       0.4339937839      1.0000000000
 D 3 
   1      27.3603358640      0.0575501019
   2       7.4542765527      0.3023798347
   3       2.4632270217      0.7724212088
 D 1 
   1       0.8249954244      1.0000000000
 D 1 
   1       0.2526297057      1.0000000000
 P 1 
   1       0.1112480000      1.0000000000
 P 1 
   1       0.0363780000      1.0000000000
 F 1 
   1       1.8000000000      1.0000000000
  end;

---------------------------------
AUXILIARY/J BASIS SET INFORMATION
---------------------------------
There are 5 groups of distinct atoms

 Group   1 Type V   : 19s5p5d3f3g contracted to 8s5p5d2f3g pattern {121111111/11111/11111/21/111}
 Group   2 Type S   : 14s5p5d2f1g contracted to 8s4p3d1f1g pattern {71111111/2111/311/2/1}
 Group   3 Type O   : 12s5p4d2f1g contracted to 6s4p3d1f1g pattern {711111/2111/211/2/1}
 Group   4 Type C   : 12s5p4d2f1g contracted to 6s4p3d1f1g pattern {711111/2111/211/2/1}
 Group   5 Type H   : 5s2p1d contracted to 3s1p1d pattern {311/2/1}

Atom   0V    basis set group =>   1
Atom   1S    basis set group =>   2
Atom   2S    basis set group =>   2
Atom   3S    basis set group =>   2
Atom   4S    basis set group =>   2
Atom   5O    basis set group =>   3
Atom   6C    basis set group =>   4
Atom   7C    basis set group =>   4
Atom   8C    basis set group =>   4
Atom   9H    basis set group =>   5
Atom  10H    basis set group =>   5
Atom  11H    basis set group =>   5
Atom  12H    basis set group =>   5
Atom  13H    basis set group =>   5
Atom  14H    basis set group =>   5
Atom  15C    basis set group =>   4
Atom  16C    basis set group =>   4
Atom  17C    basis set group =>   4
Atom  18H    basis set group =>   5
Atom  19H    basis set group =>   5
Atom  20H    basis set group =>   5
Atom  21H    basis set group =>   5
Atom  22H    basis set group =>   5
Atom  23H    basis set group =>   5

-------------------------------------
AUXILIARY/J BASIS SET IN INPUT FORMAT
-------------------------------------

 # Auxiliary/J basis set for element : H 
 NewAuxJGTO H 
 S 3 
   1      15.6752927000      0.1007184237
   2       3.6063578000      0.3404257499
   3       1.2080016000      0.6491996172
 S 1 
   1       0.4726794000      1.0000000000
 S 1 
   1       0.2018100000      1.0000000000
 P 2 
   1       2.0281365000      0.5596620919
   2       0.5358730000      0.5596620919
 D 1 
   1       2.2165124000      1.0000000000
  end;

 # Auxiliary/J basis set for element : C 
 NewAuxJGTO C 
 S 7 
   1    1861.0916331000      0.0134602335
   2     642.9939764000      0.0299160374
   3     235.1105725000      0.1008649584
   4      90.7028894000      0.2370970548
   5      36.7794552000      0.3924037254
   6      15.6046273000      0.3195862154
   7       6.8907294000      0.0530104441
 S 1 
   1       3.1478850000     -1.0000000000
 S 1 
   1       1.4777287000      1.0000000000
 S 1 
   1       0.7076466000      1.0000000000
 S 1 
   1       0.3430122000      1.0000000000
 S 1 
   1       0.1669453000      1.0000000000
 P 2 
   1      13.5472892000     -0.6769313712
   2       5.4669419000     -0.3779500978
 P 1 
   1       2.1751721000      1.0000000000
 P 1 
   1       0.8582194000      1.0000000000
 P 1 
   1       0.3376720000      1.0000000000
 D 2 
   1       5.9287253000     -0.3533329857
   2       1.9809209000     -0.7456525731
 D 1 
   1       0.8055417000     -1.0000000000
 D 1 
   1       0.3531244000     -1.0000000000
 F 2 
   1       1.6755626000      0.6311076882
   2       0.5997536000      0.4968166032
 G 1 
   1       1.0024600000     -1.0000000000
  end;

 # Auxiliary/J basis set for element : O 
 NewAuxJGTO O 
 S 7 
   1    2876.8216605000      0.0168151159
   2    1004.7443032000      0.0340137548
   3     369.7579954000      0.1194951309
   4     142.9442404000      0.2664627624
   5      57.8366425000      0.4202764046
   6      24.3864983000      0.2765077335
   7      10.6622662000      0.0057008815
 S 1 
   1       4.8070437000     -1.0000000000
 S 1 
   1       2.2210770000      1.0000000000
 S 1 
   1       1.0447795000      1.0000000000
 S 1 
   1       0.4968425000      1.0000000000
 S 1 
   1       0.2371384000      1.0000000000
 P 2 
   1      64.2613382000     -0.2731534179
   2      16.3006076000     -0.8168011598
 P 1 
   1       4.3550542000      1.0000000000
 P 1 
   1       1.2019554000      1.0000000000
 P 1 
   1       0.3354196000      1.0000000000
 D 2 
   1       9.2146611000     -0.4661230638
   2       2.8435251000     -0.6600908911
 D 1 
   1       0.9955759000     -1.0000000000
 D 1 
   1       0.3649441000     -1.0000000000
 F 2 
   1       2.6420115000      0.5931563945
   2       0.7345613000      0.5931563945
 G 1 
   1       1.3931000000     -1.0000000000
  end;

 # Auxiliary/J basis set for element : S 
 NewAuxJGTO S 
 S 7 
   1    7399.0303145000      0.0295137551
   2    2710.1675859000      0.0559686311
   3    1034.3279062000      0.1764696370
   4     410.4645411000      0.3577969368
   5     168.9762502000      0.4299293578
   6      71.9687889000      0.1259148089
   7      31.6172683000     -0.0646025788
 S 1 
   1      14.2796836000      1.0000000000
 S 1 
   1       6.6060948000      1.0000000000
 S 1 
   1       3.1181477000      1.0000000000
 S 1 
   1       1.4954039000     -1.0000000000
 S 1 
   1       0.7254779000      1.0000000000
 S 1 
   1       0.3544216000      1.0000000000
 S 1 
   1       0.1735525000      1.0000000000
 P 2 
   1      12.6998799000      1.4059102813
   2       4.4295784000     -1.2124994202
 P 1 
   1       1.5232889000      1.0000000000
 P 1 
   1       0.5194667000     -1.0000000000
 P 1 
   1       0.1766547000     -1.0000000000
 D 3 
   1      16.8546461000      1.0295742104
   2       5.0810461000     -0.7461553923
   3       1.5102323000      0.8357028005
 D 1 
   1       0.4451331000      1.0000000000
 D 1 
   1       0.1308362000      1.0000000000
 F 2 
   1       1.0809860000      0.5572698934
   2       0.4161474000      0.5572698934
 G 1 
   1       0.6707100000     -1.0000000000
  end;

 # Auxiliary/J basis set for element : V 
 NewAuxJGTO V 
 S 12 
   1   11942.0842430000      0.0459866720
   2    2430.7110193000      0.1744615821
   3     841.0764301000      0.2900402792
   4     494.7508273000      0.1411212903
   5     291.0298903000      0.2660697186
   6     171.1940483000      0.0446365706
   7      59.2366916000     -0.0408204801
   8      34.8451117000      0.1394665381
   9      20.4971240000      0.2164746715
  10      12.0571314000      0.0864266611
  11       7.0924300000     -0.0568501658
  12       4.1720176000     -0.0126212852
 S 1 
   1       2.4541279000      1.0000000000
 S 1 
   1       1.4436046000      1.0000000000
 S 1 
   1       0.8491792000      1.0000000000
 S 1 
   1       0.2938336000      1.0000000000
 S 1 
   1       0.1728433000      1.0000000000
 S 1 
   1       0.1016725000      1.0000000000
 S 1 
   1       0.0598074000      1.0000000000
 P 1 
   1      16.7130979000     -1.0000000000
 P 1 
   1       4.7454037000     -1.0000000000
 P 1 
   1       1.3889998000      1.0000000000
 P 1 
   1       0.4142440000     -1.0000000000
 P 1 
   1       0.1243234000      1.0000000000
 D 1 
   1       7.7143225000      1.0000000000
 D 1 
   1       3.1170731000      1.0000000000
 D 1 
   1       1.2767950000     -1.0000000000
 D 1 
   1       0.5273386000      1.0000000000
 D 1 
   1       0.2184050000      1.0000000000
 F 2 
   1       3.1309344000     -1.0825667766
   2       1.0419780000      0.1809223232
 F 1 
   1       0.3559044000      1.0000000000
 G 1 
   1       8.7130110000      1.0000000000
 G 1 
   1       2.7493872000      1.0000000000
 G 1 
   1       0.8775089000      1.0000000000
  end;



           ************************************************************
           *        Program running with 4 parallel MPI-processes     *
           *              working on a common directory               *
           ************************************************************
------------------------------------------------------------------------------
                           ORCA GTO INTEGRAL CALCULATION
                           -- RI-GTO INTEGRALS CHOSEN --
------------------------------------------------------------------------------
------------------------------------------------------------------------------
                   ___                                                        
                  /   \      - P O W E R E D   B Y -                         
                 /     \                                                     
                 |  |  |   _    _      __       _____    __    __             
                 |  |  |  | |  | |    /  \     |  _  \  |  |  /  |          
                  \  \/   | |  | |   /    \    | | | |  |  | /  /          
                 / \  \   | |__| |  /  /\  \   | |_| |  |  |/  /          
                |  |  |   |  __  | /  /__\  \  |    /   |      \           
                |  |  |   | |  | | |   __   |  |    \   |  |\   \          
                \     /   | |  | | |  |  |  |  | |\  \  |  | \   \       
                 \___/    |_|  |_| |__|  |__|  |_| \__\ |__|  \__/        
                                                                              
                      - O R C A' S   B I G   F R I E N D -                    
                                      &                                       
                       - I N T E G R A L  F E E D E R -                       
                                                                              
 v1 FN, 2020, v2 2021                                                         
------------------------------------------------------------------------------


Reading SHARK input file input_36.SHARKINP.tmp ... ok
----------------------
SHARK INTEGRAL PACKAGE
----------------------

Number of atoms                             ...     24
Number of basis functions                   ...    353
Number of shells                            ...    179
Maximum angular momentum                    ...      3
Integral batch strategy                     ... SHARK/LIBINT Hybrid
RI-J (if used) integral strategy            ... SPLIT-RIJ (Revised 2003 algorithm where possible)
Printlevel                                  ...      1
Contraction scheme used                     ... SEGMENTED contraction
Coulomb Range Separation                    ... NOT USED
Exchange Range Separation                   ... NOT USED
Finite Nucleus Model                        ... NOT USED
Auxiliary Coulomb fitting basis             ... AVAILABLE
   # of basis functions in Aux-J            ...    768
   # of shells in Aux-J                     ...    256
   Maximum angular momentum in Aux-J        ...      4
Auxiliary J/K fitting basis                 ... NOT available
Auxiliary Correlation fitting basis         ... NOT available
Auxiliary 'external' fitting basis          ... NOT available
Integral threshold                          ...     1.000000e-10
Primitive cut-off                           ...     1.000000e-11
Primitive pair pre-selection threshold      ...     1.000000e-11

Calculating pre-screening integrals         ... done (  0.0 sec) Dimension = 179
Organizing shell pair data                  ... done (  0.1 sec)
Shell pair information
Total number of shell pairs                 ...     16110
Shell pairs after pre-screening             ...     11564
Total number of primitive shell pairs       ...     54315
Primitive shell pairs kept                  ...     25729
          la=0 lb=0:   3955 shell pairs
          la=1 lb=0:   4436 shell pairs
          la=1 lb=1:   1269 shell pairs
          la=2 lb=0:   1069 shell pairs
          la=2 lb=1:    612 shell pairs
          la=2 lb=2:     85 shell pairs
          la=3 lb=0:     77 shell pairs
          la=3 lb=1:     46 shell pairs
          la=3 lb=2:     14 shell pairs
          la=3 lb=3:      1 shell pairs

Calculating one electron integrals          ... done (  0.0 sec)
Calculating RI/J V-Matrix + Cholesky decomp.... done (  0.0 sec)
Calculating Nuclear repulsion               ... done (  0.0 sec) ENN=   1519.816789704987 Eh

SHARK setup successfully completed in   0.4 seconds

Maximum memory used throughout the entire GTOINT-calculation: 25.5 MB


           ************************************************************
           *        Program running with 4 parallel MPI-processes     *
           *              working on a common directory               *
           ************************************************************
-------------------------------------------------------------------------------
                                 ORCA SCF
-------------------------------------------------------------------------------

------------
SCF SETTINGS
------------
Hamiltonian:
 Density Functional     Method          .... DFT(GTOs)
 Exchange Functional    Exchange        .... B88
   X-Alpha parameter    XAlpha          ....  0.666667
   Becke's b parameter  XBeta           ....  0.004200
 Correlation Functional Correlation     .... LYP
 LDA part of GGA corr.  LDAOpt          .... VWN-5
 Gradients option       PostSCFGGA      .... off
 Hybrid DFT is turned on
   Fraction HF Exchange ScalHFX         ....  0.200000
   Scaling of DF-GGA-X  ScalDFX         ....  0.720000
   Scaling of DF-GGA-C  ScalDFC         ....  0.810000
   Scaling of DF-LDA-C  ScalLDAC        ....  1.000000
   Perturbative correction              ....  0.000000
   Density functional embedding theory  .... OFF
   NL short-range parameter             ....  4.800000
 RI-approximation to the Coulomb term is turned on
   Number of AuxJ basis functions       .... 768
   RIJ-COSX (HFX calculated with COS-X)).... on


General Settings:
 Integral files         IntName         .... input_36
 Hartree-Fock type      HFTyp           .... UHF
 Total Charge           Charge          ....   -2
 Multiplicity           Mult            ....    2
 Number of Electrons    NEL             ....  145
 Basis Dimension        Dim             ....  353
 Nuclear Repulsion      ENuc            ....   1519.8167897050 Eh

Convergence Acceleration:
 DIIS                   CNVDIIS         .... on
   Start iteration      DIISMaxIt       ....    12
   Startup error        DIISStart       ....  0.200000
   # of expansion vecs  DIISMaxEq       ....     5
   Bias factor          DIISBfac        ....   1.050
   Max. coefficient     DIISMaxC        ....  10.000
 Trust-Rad. Augm. Hess. CNVTRAH         .... auto
   Auto Start mean grad. ratio tolernc. ....  1.125000
   Auto Start start iteration           ....    20
   Auto Start num. interpolation iter.  ....    10
   Max. Number of Micro iterations      ....    16
   Max. Number of Macro iterations      .... Maxiter - #DIIS iter
   Number of Davidson start vectors     ....     2
   Converg. threshold I  (grad. norm)   ....   5.000e-05
   Converg. threshold II (energy diff.) ....   1.000e-06
   Grad. Scal. Fac. for Micro threshold ....   0.100
   Minimum threshold for Micro iter.    ....   0.010
   NR start threshold (gradient norm)   ....   0.001
   Initial trust radius                 ....   0.400
   Minimum AH scaling param. (alpha)    ....   1.000
   Maximum AH scaling param. (alpha)    .... 1000.000
   Orbital update algorithm             .... Taylor
   White noise on init. David. guess    .... on
   Maximum white noise                  ....   0.010
   Quad. conv. algorithm                .... NR
 SOSCF                  CNVSOSCF        .... off
 Level Shifting         CNVShift        .... on
   Level shift para.    LevelShift      ....    0.2500
   Turn off err/grad.   ShiftErr        ....    0.0010
 Zerner damping         CNVZerner       .... off
 Static damping         CNVDamp         .... on
   Fraction old density DampFac         ....    0.7000
   Max. Damping (<1)    DampMax         ....    0.9800
   Min. Damping (>=0)   DampMin         ....    0.0000
   Turn off err/grad.   DampErr         ....    0.1000
 Fernandez-Rico         CNVRico         .... off

SCF Procedure:
 Maximum # iterations   MaxIter         ....   125
 SCF integral mode      SCFMode         .... Direct
   Integral package                     .... SHARK and LIBINT hybrid scheme
 Reset frequency        DirectResetFreq ....    20
 Integral Threshold     Thresh          ....  1.000e-10 Eh
 Primitive CutOff       TCut            ....  1.000e-11 Eh

Convergence Tolerance:
 Convergence Check Mode ConvCheckMode   .... Total+1el-Energy
 Convergence forced     ConvForced      .... 0
 Energy Change          TolE            ....  1.000e-06 Eh
 1-El. energy change                    ....  1.000e-03 Eh
 DIIS Error             TolErr          ....  1.000e-06


Diagonalization of the overlap matrix:
Smallest eigenvalue                        ... 3.047e-04
Time for diagonalization                   ...    0.050 sec
Threshold for overlap eigenvalues          ... 1.000e-08
Number of eigenvalues below threshold      ... 0
Time for construction of square roots      ...    0.033 sec
Total time needed                          ...    0.084 sec

Time for model grid setup =    0.227 sec

------------------------------
INITIAL GUESS: MODEL POTENTIAL
------------------------------
Loading Hartree-Fock densities                     ... done
Calculating cut-offs                               ... done
Initializing the effective Hamiltonian             ... done
Setting up the integral package (SHARK)            ... done
Starting the Coulomb interaction                   ... done (   0.2 sec)
Reading the grid                                   ... done
Mapping shells                                     ... done
Starting the XC term evaluation                    ... done (   0.1 sec)
  promolecular density results
     # of electrons  =    142.993884682
     EX              =   -186.834142403
     EC              =     -5.514249436
     EX+EC           =   -192.348391839
Transforming the Hamiltonian                       ... done (   0.0 sec)
Diagonalizing the Hamiltonian                      ... done (   0.0 sec)
Back transforming the eigenvectors                 ... done (   0.0 sec)
Now organizing SCF variables                       ... done
                      ------------------
                      INITIAL GUESS DONE (   0.6 sec)
                      ------------------
-------------------
DFT GRID GENERATION
-------------------

General Integration Accuracy     IntAcc      ... 4.388
Radial Grid Type                 RadialGrid  ... OptM3 with GC (2021)
Angular Grid (max. ang.)         AngularGrid ... 4 (Lebedev-302)
Angular grid pruning method      GridPruning ... 4 (adaptive)
Weight generation scheme         WeightScheme... Becke
Basis function cutoff            BFCut       ... 1.0000e-10
Integration weight cutoff        WCut        ... 1.0000e-14
Angular grids for H and He will be reduced by one unit
Partially contracted basis set               ... off
Rotationally invariant grid construction     ... off

Total number of grid points                  ...   131071
Total number of batches                      ...     2063
Average number of points per batch           ...       63
Average number of grid points per atom       ...     5461
Time for grid setup =    1.064 sec

--------------------
COSX GRID GENERATION
--------------------

GRIDX 1
-------
General Integration Accuracy     IntAcc      ... 3.816
Radial Grid Type                 RadialGrid  ... OptM3 with GC (2021)
Angular Grid (max. ang.)         AngularGrid ... 1 (Lebedev-50)
Angular grid pruning method      GridPruning ... 4 (adaptive)
Weight generation scheme         WeightScheme... Becke
Basis function cutoff            BFCut       ... 1.0000e-10
Integration weight cutoff        WCut        ... 1.0000e-14
Angular grids for H and He will be reduced by one unit
Partially contracted basis set               ... on
Rotationally invariant grid construction     ... off

Total number of grid points                  ...    16419
Total number of batches                      ...      269
Average number of points per batch           ...       61
Average number of grid points per atom       ...      684
UseSFitting                                  ... on

GRIDX 2
-------
General Integration Accuracy     IntAcc      ... 4.020
Radial Grid Type                 RadialGrid  ... OptM3 with GC (2021)
Angular Grid (max. ang.)         AngularGrid ... 2 (Lebedev-110)
Angular grid pruning method      GridPruning ... 4 (adaptive)
Weight generation scheme         WeightScheme... Becke
Basis function cutoff            BFCut       ... 1.0000e-10
Integration weight cutoff        WCut        ... 1.0000e-14
Angular grids for H and He will be reduced by one unit
Partially contracted basis set               ... on
Rotationally invariant grid construction     ... off

Total number of grid points                  ...    34389
Total number of batches                      ...      548
Average number of points per batch           ...       62
Average number of grid points per atom       ...     1433
UseSFitting                                  ... on

GRIDX 3
-------
General Integration Accuracy     IntAcc      ... 4.338
Radial Grid Type                 RadialGrid  ... OptM3 with GC (2021)
Angular Grid (max. ang.)         AngularGrid ... 3 (Lebedev-194)
Angular grid pruning method      GridPruning ... 4 (adaptive)
Weight generation scheme         WeightScheme... Becke
Basis function cutoff            BFCut       ... 1.0000e-10
Integration weight cutoff        WCut        ... 1.0000e-14
Angular grids for H and He will be reduced by one unit
Partially contracted basis set               ... on
Rotationally invariant grid construction     ... off

Total number of grid points                  ...    77448
Total number of batches                      ...     1222
Average number of points per batch           ...       63
Average number of grid points per atom       ...     3227
UseSFitting                                  ... on

Time for X-Grid setup             =    1.037 sec

--------------
SCF ITERATIONS
--------------
ITER       Energy         Delta-E        Max-DP      RMS-DP      [F,P]     Damp
               ***  Starting incremental Fock matrix formation  ***
  0  -2847.0651896202   0.000000000000 0.08466437  0.00107426  0.2236270 0.7000
  1  -2847.2970102987  -0.231820678471 0.09878548  0.00103467  0.1559373 0.7000
                               ***Turning on DIIS***
  2  -2847.4322311316  -0.135220832962 0.05675069  0.00062485  0.1090749 0.7000
  3  -2847.5042015053  -0.071970373628 0.08603709  0.00093119  0.0771394 0.0000
  4  -2847.6734700241  -0.169268518840 0.05449573  0.00047518  0.0107349 0.0000
  5  -2847.6782384397  -0.004768415622 0.00956076  0.00012845  0.0093724 0.0000
  6  -2847.6793006418  -0.001062202116 0.00374549  0.00006333  0.0028501 0.0000
  7  -2847.6795092189  -0.000208577070 0.00203319  0.00003349  0.0011055 0.0000
  8  -2847.6795887619  -0.000079543029 0.00158842  0.00002555  0.0010616 0.0000
  9  -2847.6796418266  -0.000053064691 0.00277730  0.00004247  0.0006257 0.0000
               *** Restarting incremental Fock matrix formation ***
                                   *** Resetting DIIS ***
 10  -2847.6797150106  -0.000073183934 0.00102756  0.00001485  0.0005132 0.0000
 11  -2847.6797230221  -0.000008011574 0.00027309  0.00000361  0.0010906 0.0000
 12  -2847.6797299710  -0.000006948857 0.00053625  0.00000823  0.0002883 0.0000
 13  -2847.6797321731  -0.000002202102 0.00039649  0.00000605  0.0004748 0.0000
 14  -2847.6797374409  -0.000005267793 0.00062755  0.00000718  0.0001753 0.0000
 15  -2847.6797395355  -0.000002094637 0.00012703  0.00000181  0.0000717 0.0000
 16  -2847.6797396040  -0.000000068496 0.00013345  0.00000145  0.0000750 0.0000
 17  -2847.6797396607  -0.000000056640 0.00004825  0.00000038  0.0000089 0.0000
                 **** Energy Check signals convergence ****

               *****************************************************
               *                     SUCCESS                       *
               *           SCF CONVERGED AFTER  18 CYCLES          *
               *****************************************************

Old exchange energy                            =    -37.590799398 Eh
New exchange energy                            =    -37.590764507 Eh
Exchange energy change after final integration =      0.000034891 Eh
Total energy after final integration           =  -2847.679704823 Eh
Final COS-X integration done in                =    11.093 sec

----------------
TOTAL SCF ENERGY
----------------

Total Energy       :        -2847.67970482 Eh          -77489.30425 eV

Components:
Nuclear Repulsion  :         1519.81678970 Eh           41356.31736 eV
Electronic Energy  :        -4367.49649453 Eh         -118845.62161 eV
One Electron Energy:        -6990.29527733 Eh         -190215.60487 eV
Two Electron Energy:         2622.79878280 Eh           71369.98326 eV
Max COSX asymmetry :            0.00000280 Eh               0.00008 eV

Virial components:
Potential Energy   :        -5688.38202469 Eh         -154788.74420 eV
Kinetic Energy     :         2840.70231987 Eh           77299.43995 eV
Virial Ratio       :            2.00245622


DFT components:
N(Alpha)           :       73.000048436035 electrons
N(Beta)            :       72.000046698432 electrons
N(Total)           :      145.000095134467 electrons
E(X)               :     -149.483779490184 Eh       
E(C)               :       -6.522921817225 Eh       
E(XC)              :     -156.006701307409 Eh       
DFET-embed. en.    :        0.000000000000 Eh       

---------------
SCF CONVERGENCE
---------------

  Last Energy change         ...   -5.3178e-08  Tolerance :   1.0000e-06
  Last MAX-Density change    ...    0.0000e+00  Tolerance :   1.0000e-05
  Last RMS-Density change    ...    0.0000e+00  Tolerance :   1.0000e-06
  Last DIIS Error            ...    2.8210e-05  Tolerance :   1.0000e-06

             **** THE GBW FILE WAS UPDATED (input_36.gbw) ****
             **** DENSITY input_36.scfp WAS UPDATED ****
             **** ENERGY FILE WAS UPDATED (input_36.en.tmp) ****
----------------------
UHF SPIN CONTAMINATION
----------------------

Warning: in a DFT calculation there is little theoretical justification to 
         calculate <S**2> as in Hartree-Fock theory. We will do it anyways
         but you should keep in mind that the values have only limited relevance

Expectation value of <S**2>     :     0.765632
Ideal value S*(S+1) for S=0.5   :     0.750000
Deviation                       :     0.015632

             **** THE GBW FILE WAS UPDATED (input_36.gbw) ****
             **** DENSITY input_36.scfp WAS UPDATED ****
----------------
ORBITAL ENERGIES
----------------
                 SPIN UP ORBITALS
  NO   OCC          E(Eh)            E(eV) 
   0   1.0000    -196.607303     -5349.9567 
   1   1.0000     -88.566099     -2410.0061 
   2   1.0000     -88.562282     -2409.9022 
   3   1.0000     -88.562273     -2409.9020 
   4   1.0000     -88.558351     -2409.7952 
   5   1.0000     -21.982675      -598.1790 
   6   1.0000     -18.826040      -512.2826 
   7   1.0000     -18.490485      -503.1517 
   8   1.0000     -18.483251      -502.9548 
   9   1.0000     -18.483202      -502.9535 
  10   1.0000      -9.948806      -270.7208 
  11   1.0000      -9.948314      -270.7074 
  12   1.0000      -9.935736      -270.3651 
  13   1.0000      -9.934932      -270.3432 
  14   1.0000      -9.934778      -270.3391 
  15   1.0000      -9.932640      -270.2809 
  16   1.0000      -7.619743      -207.3437 
  17   1.0000      -7.616426      -207.2535 
  18   1.0000      -7.616361      -207.2517 
  19   1.0000      -7.612698      -207.1520 
  20   1.0000      -5.585354      -151.9852 
  21   1.0000      -5.581840      -151.8896 
  22   1.0000      -5.581620      -151.8836 
  23   1.0000      -5.578343      -151.7944 
  24   1.0000      -5.577922      -151.7830 
  25   1.0000      -5.576968      -151.7570 
  26   1.0000      -5.575411      -151.7146 
  27   1.0000      -5.575274      -151.7109 
  28   1.0000      -5.573685      -151.6677 
  29   1.0000      -5.573393      -151.6597 
  30   1.0000      -5.571928      -151.6199 
  31   1.0000      -5.569764      -151.5610 
  32   1.0000      -2.375490       -64.6404 
  33   1.0000      -1.418395       -38.5965 
  34   1.0000      -1.403534       -38.1921 
  35   1.0000      -1.403089       -38.1800 
  36   1.0000      -0.588552       -16.0153 
  37   1.0000      -0.552462       -15.0333 
  38   1.0000      -0.551568       -15.0089 
  39   1.0000      -0.467667       -12.7259 
  40   1.0000      -0.466195       -12.6858 
  41   1.0000      -0.405887       -11.0448 
  42   1.0000      -0.399016       -10.8578 
  43   1.0000      -0.338578        -9.2132 
  44   1.0000      -0.330098        -8.9824 
  45   1.0000      -0.295867        -8.0509 
  46   1.0000      -0.285365        -7.7652 
  47   1.0000      -0.215231        -5.8567 
  48   1.0000      -0.209386        -5.6977 
  49   1.0000      -0.203502        -5.5376 
  50   1.0000      -0.194809        -5.3010 
  51   1.0000      -0.155747        -4.2381 
  52   1.0000      -0.134226        -3.6525 
  53   1.0000      -0.132131        -3.5955 
  54   1.0000      -0.108551        -2.9538 
  55   1.0000      -0.106230        -2.8907 
  56   1.0000      -0.093373        -2.5408 
  57   1.0000      -0.080067        -2.1787 
  58   1.0000      -0.070205        -1.9104 
  59   1.0000      -0.064444        -1.7536 
  60   1.0000      -0.057461        -1.5636 
  61   1.0000      -0.046266        -1.2590 
  62   1.0000      -0.038918        -1.0590 
  63   1.0000      -0.036856        -1.0029 
  64   1.0000      -0.001674        -0.0456 
  65   1.0000       0.026836         0.7302 
  66   1.0000       0.029436         0.8010 
  67   1.0000       0.036534         0.9941 
  68   1.0000       0.043309         1.1785 
  69   1.0000       0.051189         1.3929 
  70   1.0000       0.062661         1.7051 
  71   1.0000       0.070075         1.9068 
  72   1.0000       0.080364         2.1868 
  73   0.0000       0.233891         6.3645 
  74   0.0000       0.245604         6.6832 
  75   0.0000       0.248644         6.7659 
  76   0.0000       0.251907         6.8547 
  77   0.0000       0.258069         7.0224 
  78   0.0000       0.261478         7.1152 
  79   0.0000       0.274130         7.4595 
  80   0.0000       0.289426         7.8757 
  81   0.0000       0.290757         7.9119 
  82   0.0000       0.296513         8.0685 
  83   0.0000       0.298314         8.1175 
  84   0.0000       0.304461         8.2848 
  85   0.0000       0.310030         8.4364 
  86   0.0000       0.314995         8.5714 
  87   0.0000       0.319557         8.6956 
  88   0.0000       0.328370         8.9354 
  89   0.0000       0.332594         9.0503 
  90   0.0000       0.349804         9.5187 
  91   0.0000       0.356952         9.7132 
  92   0.0000       0.359934         9.7943 
  93   0.0000       0.373970        10.1762 
  94   0.0000       0.376080        10.2337 
  95   0.0000       0.400932        10.9099 
  96   0.0000       0.405947        11.0464 
  97   0.0000       0.412416        11.2224 
  98   0.0000       0.418925        11.3995 
  99   0.0000       0.432201        11.7608 
 100   0.0000       0.433649        11.8002 
 101   0.0000       0.445436        12.1209 
 102   0.0000       0.447463        12.1761 
 103   0.0000       0.460162        12.5216 
 104   0.0000       0.463761        12.6196 
 105   0.0000       0.469424        12.7737 
 106   0.0000       0.480888        13.0856 
 107   0.0000       0.485121        13.2008 
 108   0.0000       0.488389        13.2897 
 109   0.0000       0.505291        13.7497 
 110   0.0000       0.516964        14.0673 
 111   0.0000       0.532696        14.4954 
 112   0.0000       0.539094        14.6695 
 113   0.0000       0.548503        14.9255 
 114   0.0000       0.555652        15.1201 
 115   0.0000       0.563950        15.3459 
 116   0.0000       0.574366        15.6293 
 117   0.0000       0.579182        15.7603 
 118   0.0000       0.583187        15.8693 
 119   0.0000       0.594043        16.1647 
 120   0.0000       0.602686        16.3999 
 121   0.0000       0.612432        16.6651 
 122   0.0000       0.613140        16.6844 
 123   0.0000       0.623959        16.9788 
 124   0.0000       0.631577        17.1861 
 125   0.0000       0.633686        17.2435 
 126   0.0000       0.642801        17.4915 
 127   0.0000       0.647702        17.6249 
 128   0.0000       0.657514        17.8919 
 129   0.0000       0.660814        17.9817 
 130   0.0000       0.663870        18.0648 
 131   0.0000       0.668454        18.1896 
 132   0.0000       0.671662        18.2769 
 133   0.0000       0.678819        18.4716 
 134   0.0000       0.681929        18.5562 
 135   0.0000       0.685914        18.6647 
 136   0.0000       0.691934        18.8285 
 137   0.0000       0.700177        19.0528 
 138   0.0000       0.702980        19.1291 
 139   0.0000       0.714459        19.4414 
 140   0.0000       0.717553        19.5256 
 141   0.0000       0.724937        19.7265 
 142   0.0000       0.730690        19.8831 
 143   0.0000       0.736101        20.0303 
 144   0.0000       0.746566        20.3151 
 145   0.0000       0.763750        20.7827 
 146   0.0000       0.767456        20.8835 
 147   0.0000       0.794916        21.6308 
 148   0.0000       0.805941        21.9308 
 149   0.0000       0.817238        22.2382 
 150   0.0000       0.820808        22.3353 
 151   0.0000       0.831984        22.6394 
 152   0.0000       0.861311        23.4375 
 153   0.0000       0.872034        23.7293 
 154   0.0000       0.890613        24.2348 
 155   0.0000       0.910443        24.7744 
 156   0.0000       0.912575        24.8324 
 157   0.0000       0.956765        26.0349 
 158   0.0000       0.988458        26.8973 
 159   0.0000       0.998190        27.1621 
 160   0.0000       1.000476        27.2243 
 161   0.0000       1.012431        27.5496 
 162   0.0000       1.014124        27.5957 
 163   0.0000       1.029747        28.0209 
 164   0.0000       1.039963        28.2988 
 165   0.0000       1.046388        28.4737 
 166   0.0000       1.068195        29.0671 
 167   0.0000       1.085445        29.5365 
 168   0.0000       1.092867        29.7384 
 169   0.0000       1.109136        30.1811 
 170   0.0000       1.127989        30.6941 
 171   0.0000       1.141186        31.0533 
 172   0.0000       1.147176        31.2162 
 173   0.0000       1.162990        31.6466 
 174   0.0000       1.177932        32.0532 
 175   0.0000       1.195246        32.5243 
 176   0.0000       1.243394        33.8345 
 177   0.0000       1.263174        34.3727 
 178   0.0000       1.278605        34.7926 
 179   0.0000       1.299353        35.3572 
 180   0.0000       1.305368        35.5209 
 181   0.0000       1.345466        36.6120 
 182   0.0000       1.359370        36.9904 
 183   0.0000       1.377084        37.4724 
 184   0.0000       1.425664        38.7943 
 185   0.0000       1.433515        39.0079 
 186   0.0000       1.435248        39.0551 
 187   0.0000       1.454140        39.5692 
 188   0.0000       1.469099        39.9762 
 189   0.0000       1.505185        40.9582 
 190   0.0000       1.524986        41.4970 
 191   0.0000       1.537356        41.8336 
 192   0.0000       1.545191        42.0468 
 193   0.0000       1.554630        42.3036 
 194   0.0000       1.566795        42.6346 
 195   0.0000       1.579012        42.9671 
 196   0.0000       1.586229        43.1635 
 197   0.0000       1.595812        43.4243 
 198   0.0000       1.611653        43.8553 
 199   0.0000       1.628579        44.3159 
 200   0.0000       1.635939        44.5162 
 201   0.0000       1.644746        44.7558 
 202   0.0000       1.653867        45.0040 
 203   0.0000       1.673303        45.5329 
 204   0.0000       1.690536        46.0018 
 205   0.0000       1.698348        46.2144 
 206   0.0000       1.706198        46.4280 
 207   0.0000       1.715087        46.6699 
 208   0.0000       1.729871        47.0722 
 209   0.0000       1.740326        47.3567 
 210   0.0000       1.744959        47.4827 
 211   0.0000       1.758421        47.8491 
 212   0.0000       1.778313        48.3904 
 213   0.0000       1.795966        48.8707 
 214   0.0000       1.828228        49.7486 
 215   0.0000       1.836684        49.9787 
 216   0.0000       1.848548        50.3015 
 217   0.0000       1.869056        50.8596 
 218   0.0000       1.885164        51.2979 
 219   0.0000       1.898238        51.6537 
 220   0.0000       1.914111        52.0856 
 221   0.0000       1.931802        52.5670 
 222   0.0000       1.940725        52.8098 
 223   0.0000       1.946543        52.9681 
 224   0.0000       1.984215        53.9932 
 225   0.0000       1.992099        54.2078 
 226   0.0000       2.002499        54.4908 
 227   0.0000       2.009629        54.6848 
 228   0.0000       2.015854        54.8542 
 229   0.0000       2.029958        55.2380 
 230   0.0000       2.039930        55.5093 
 231   0.0000       2.054591        55.9083 
 232   0.0000       2.069321        56.3091 
 233   0.0000       2.088577        56.8331 
 234   0.0000       2.096600        57.0514 
 235   0.0000       2.100491        57.1573 
 236   0.0000       2.146464        58.4083 
 237   0.0000       2.156494        58.6812 
 238   0.0000       2.158846        58.7452 
 239   0.0000       2.193985        59.7014 
 240   0.0000       2.200651        59.8828 
 241   0.0000       2.207352        60.0651 
 242   0.0000       2.225920        60.5704 
 243   0.0000       2.242701        61.0270 
 244   0.0000       2.248329        61.1802 
 245   0.0000       2.264099        61.6093 
 246   0.0000       2.274974        61.9052 
 247   0.0000       2.295365        62.4600 
 248   0.0000       2.304310        62.7035 
 249   0.0000       2.310433        62.8701 
 250   0.0000       2.330847        63.4256 
 251   0.0000       2.353961        64.0545 
 252   0.0000       2.362838        64.2961 
 253   0.0000       2.388839        65.0036 
 254   0.0000       2.404071        65.4181 
 255   0.0000       2.416203        65.7482 
 256   0.0000       2.456201        66.8366 
 257   0.0000       2.467546        67.1453 
 258   0.0000       2.497332        67.9559 
 259   0.0000       2.503459        68.1226 
 260   0.0000       2.515279        68.4442 
 261   0.0000       2.525327        68.7176 
 262   0.0000       2.538009        69.0627 
 263   0.0000       2.567708        69.8709 
 264   0.0000       2.611462        71.0615 
 265   0.0000       2.616357        71.1947 
 266   0.0000       2.637749        71.7768 
 267   0.0000       2.668058        72.6016 
 268   0.0000       2.674441        72.7752 
 269   0.0000       2.680613        72.9432 
 270   0.0000       2.707287        73.6690 
 271   0.0000       2.720468        74.0277 
 272   0.0000       2.769417        75.3597 
 273   0.0000       2.772715        75.4494 
 274   0.0000       2.780210        75.6534 
 275   0.0000       2.809157        76.4410 
 276   0.0000       2.845167        77.4209 
 277   0.0000       2.870909        78.1214 
 278   0.0000       2.874608        78.2221 
 279   0.0000       2.889863        78.6372 
 280   0.0000       2.895015        78.7774 
 281   0.0000       2.899635        78.9031 
 282   0.0000       2.921749        79.5048 
 283   0.0000       2.935749        79.8858 
 284   0.0000       2.936353        79.9022 
 285   0.0000       2.949002        80.2464 
 286   0.0000       2.959633        80.5357 
 287   0.0000       2.974067        80.9285 
 288   0.0000       2.984351        81.2083 
 289   0.0000       2.987367        81.2904 
 290   0.0000       3.005110        81.7732 
 291   0.0000       3.026793        82.3632 
 292   0.0000       3.042073        82.7790 
 293   0.0000       3.051410        83.0331 
 294   0.0000       3.072910        83.6181 
 295   0.0000       3.104945        84.4898 
 296   0.0000       3.120140        84.9033 
 297   0.0000       3.218967        87.5926 
 298   0.0000       3.274844        89.1130 
 299   0.0000       3.368013        91.6483 
 300   0.0000       3.397749        92.4574 
 301   0.0000       3.443154        93.6930 
 302   0.0000       3.469603        94.4127 
 303   0.0000       3.489222        94.9466 
 304   0.0000       3.513229        95.5998 
 305   0.0000       3.554283        96.7170 
 306   0.0000       3.583016        97.4988 
 307   0.0000       3.593161        97.7749 
 308   0.0000       3.605128        98.1005 
 309   0.0000       3.627060        98.6973 
 310   0.0000       3.658277        99.5468 
 311   0.0000       3.660206        99.5993 
 312   0.0000       3.665590        99.7458 
 313   0.0000       3.868883       105.2777 
 314   0.0000       3.885500       105.7298 
 315   0.0000       3.921304       106.7041 
 316   0.0000       4.042410       109.9996 
 317   0.0000       4.262193       115.9802 
 318   0.0000       4.577404       124.5575 
 319   0.0000       4.593485       124.9951 
 320   0.0000       4.596275       125.0710 
 321   0.0000       4.618346       125.6716 
 322   0.0000       4.648237       126.4850 
 323   0.0000       4.648910       126.5033 
 324   0.0000       5.221898       142.0951 
 325   0.0000       7.038753       191.5342 
 326   0.0000       7.098888       193.1706 
 327   0.0000       7.159120       194.8096 
 328   0.0000      18.838203       512.6136 
 329   0.0000      18.900128       514.2986 
 330   0.0000      18.993999       516.8530 
 331   0.0000      19.061332       518.6852 
 332   0.0000      19.834600       539.7269 
 333   0.0000      22.122481       601.9833 
 334   0.0000      22.142073       602.5164 
 335   0.0000      22.200702       604.1118 
 336   0.0000      22.265562       605.8768 
 337   0.0000      22.314604       607.2113 
 338   0.0000      22.361455       608.4861 
 339   0.0000      43.708423      1189.3667 
 340   0.0000     128.771145      3504.0410 
 341   0.0000     158.424434      4310.9480 
 342   0.0000     158.476264      4312.3584 
 343   0.0000     158.513246      4313.3647 
 344   0.0000     555.925238     15127.4948 
 345   0.0000    1893.324589     51519.9813 
 346   0.0000    6235.832329    169685.6243 
 347   0.0000   22016.257993    599092.8373 
 348   0.0000   90690.806221   2467822.2989 
 349   0.0000   462517.544815   12585742.2412 
 350   0.0000   1711386.099783   46569183.3066 
 351   0.0000   5079093.303743   138209155.2125 
 352   0.0000   14523636.819445   395208249.8563 

                 SPIN DOWN ORBITALS
  NO   OCC          E(Eh)            E(eV) 
   0   1.0000    -196.607446     -5349.9606 
   1   1.0000     -88.566283     -2410.0111 
   2   1.0000     -88.562435     -2409.9064 
   3   1.0000     -88.562381     -2409.9049 
   4   1.0000     -88.558324     -2409.7945 
   5   1.0000     -21.967631      -597.7696 
   6   1.0000     -18.829513      -512.3771 
   7   1.0000     -18.485292      -503.0104 
   8   1.0000     -18.467205      -502.5182 
   9   1.0000     -18.466732      -502.5053 
  10   1.0000      -9.948680      -270.7173 
  11   1.0000      -9.948146      -270.7028 
  12   1.0000      -9.935750      -270.3655 
  13   1.0000      -9.934874      -270.3417 
  14   1.0000      -9.934610      -270.3345 
  15   1.0000      -9.932597      -270.2797 
  16   1.0000      -7.619922      -207.3486 
  17   1.0000      -7.616580      -207.2577 
  18   1.0000      -7.616455      -207.2543 
  19   1.0000      -7.612674      -207.1514 
  20   1.0000      -5.585524      -151.9898 
  21   1.0000      -5.581959      -151.8928 
  22   1.0000      -5.581772      -151.8877 
  23   1.0000      -5.578816      -151.8073 
  24   1.0000      -5.577939      -151.7834 
  25   1.0000      -5.577112      -151.7609 
  26   1.0000      -5.575835      -151.7262 
  27   1.0000      -5.575692      -151.7223 
  28   1.0000      -5.573806      -151.6710 
  29   1.0000      -5.573289      -151.6569 
  30   1.0000      -5.572265      -151.6291 
  31   1.0000      -5.569297      -151.5483 
  32   1.0000      -2.330583       -63.4184 
  33   1.0000      -1.399432       -38.0805 
  34   1.0000      -1.341934       -36.5159 
  35   1.0000      -1.340159       -36.4676 
  36   1.0000      -0.595972       -16.2172 
  37   1.0000      -0.552363       -15.0306 
  38   1.0000      -0.551416       -15.0048 
  39   1.0000      -0.467631       -12.7249 
  40   1.0000      -0.466130       -12.6840 
  41   1.0000      -0.405945       -11.0463 
  42   1.0000      -0.399100       -10.8601 
  43   1.0000      -0.338749        -9.2178 
  44   1.0000      -0.330480        -8.9928 
  45   1.0000      -0.295783        -8.0487 
  46   1.0000      -0.285409        -7.7664 
  47   1.0000      -0.215169        -5.8551 
  48   1.0000      -0.209373        -5.6973 
  49   1.0000      -0.203386        -5.5344 
  50   1.0000      -0.194622        -5.2959 
  51   1.0000      -0.155528        -4.2321 
  52   1.0000      -0.134101        -3.6491 
  53   1.0000      -0.131869        -3.5883 
  54   1.0000      -0.108489        -2.9521 
  55   1.0000      -0.106106        -2.8873 
  56   1.0000      -0.093271        -2.5380 
  57   1.0000      -0.079305        -2.1580 
  58   1.0000      -0.067763        -1.8439 
  59   1.0000      -0.063606        -1.7308 
  60   1.0000      -0.057433        -1.5628 
  61   1.0000      -0.047711        -1.2983 
  62   1.0000      -0.040657        -1.1063 
  63   1.0000      -0.036655        -0.9974 
  64   1.0000       0.002405         0.0654 
  65   1.0000       0.027950         0.7606 
  66   1.0000       0.032369         0.8808 
  67   1.0000       0.043545         1.1849 
  68   1.0000       0.046353         1.2613 
  69   1.0000       0.057534         1.5656 
  70   1.0000       0.068453         1.8627 
  71   1.0000       0.071171         1.9367 
  72   0.0000       0.233164         6.3447 
  73   0.0000       0.250434         6.8147 
  74   0.0000       0.253895         6.9088 
  75   0.0000       0.260087         7.0773 
  76   0.0000       0.263962         7.1828 
  77   0.0000       0.266009         7.2385 
  78   0.0000       0.270953         7.3730 
  79   0.0000       0.278575         7.5804 
  80   0.0000       0.289990         7.8910 
  81   0.0000       0.292375         7.9559 
  82   0.0000       0.297620         8.0986 
  83   0.0000       0.298835         8.1317 
  84   0.0000       0.305130         8.3030 
  85   0.0000       0.312007         8.4901 
  86   0.0000       0.316442         8.6108 
  87   0.0000       0.321800         8.7566 
  88   0.0000       0.328762         8.9461 
  89   0.0000       0.333600         9.0777 
  90   0.0000       0.350557         9.5391 
  91   0.0000       0.358180         9.7466 
  92   0.0000       0.360422         9.8076 
  93   0.0000       0.374996        10.2042 
  94   0.0000       0.376133        10.2351 
  95   0.0000       0.402803        10.9608 
  96   0.0000       0.406505        11.0616 
  97   0.0000       0.414199        11.2709 
  98   0.0000       0.420289        11.4367 
  99   0.0000       0.432691        11.7741 
 100   0.0000       0.434001        11.8098 
 101   0.0000       0.447199        12.1689 
 102   0.0000       0.447601        12.1798 
 103   0.0000       0.461454        12.5568 
 104   0.0000       0.464319        12.6348 
 105   0.0000       0.469891        12.7864 
 106   0.0000       0.482439        13.1278 
 107   0.0000       0.486121        13.2280 
 108   0.0000       0.488935        13.3046 
 109   0.0000       0.507160        13.8005 
 110   0.0000       0.518429        14.1072 
 111   0.0000       0.536523        14.5995 
 112   0.0000       0.541872        14.7451 
 113   0.0000       0.549898        14.9635 
 114   0.0000       0.556533        15.1440 
 115   0.0000       0.565415        15.3857 
 116   0.0000       0.574718        15.6389 
 117   0.0000       0.580389        15.7932 
 118   0.0000       0.583398        15.8751 
 119   0.0000       0.596001        16.2180 
 120   0.0000       0.604513        16.4496 
 121   0.0000       0.612858        16.6767 
 122   0.0000       0.614658        16.7257 
 123   0.0000       0.624183        16.9849 
 124   0.0000       0.632734        17.2176 
 125   0.0000       0.633917        17.2497 
 126   0.0000       0.643929        17.5222 
 127   0.0000       0.647793        17.6273 
 128   0.0000       0.657830        17.9005 
 129   0.0000       0.661271        17.9941 
 130   0.0000       0.664067        18.0702 
 131   0.0000       0.668997        18.2043 
 132   0.0000       0.671819        18.2811 
 133   0.0000       0.679231        18.4828 
 134   0.0000       0.682939        18.5837 
 135   0.0000       0.686742        18.6872 
 136   0.0000       0.692820        18.8526 
 137   0.0000       0.701297        19.0833 
 138   0.0000       0.705017        19.1845 
 139   0.0000       0.714882        19.4529 
 140   0.0000       0.717676        19.5290 
 141   0.0000       0.725127        19.7317 
 142   0.0000       0.730926        19.8895 
 143   0.0000       0.736242        20.0342 
 144   0.0000       0.746570        20.3152 
 145   0.0000       0.763910        20.7870 
 146   0.0000       0.767915        20.8960 
 147   0.0000       0.795825        21.6555 
 148   0.0000       0.807665        21.9777 
 149   0.0000       0.817257        22.2387 
 150   0.0000       0.822821        22.3901 
 151   0.0000       0.832634        22.6571 
 152   0.0000       0.862313        23.4647 
 153   0.0000       0.870219        23.6799 
 154   0.0000       0.892029        24.2733 
 155   0.0000       0.911603        24.8060 
 156   0.0000       0.913425        24.8556 
 157   0.0000       0.957904        26.0659 
 158   0.0000       0.989005        26.9122 
 159   0.0000       0.999493        27.1976 
 160   0.0000       1.000855        27.2346 
 161   0.0000       1.012541        27.5526 
 162   0.0000       1.015037        27.6206 
 163   0.0000       1.030506        28.0415 
 164   0.0000       1.040569        28.3153 
 165   0.0000       1.046702        28.4822 
 166   0.0000       1.069834        29.1117 
 167   0.0000       1.087533        29.5933 
 168   0.0000       1.093464        29.7547 
 169   0.0000       1.109311        30.1859 
 170   0.0000       1.129110        30.7246 
 171   0.0000       1.146272        31.1916 
 172   0.0000       1.150498        31.3066 
 173   0.0000       1.165830        31.7238 
 174   0.0000       1.179547        32.0971 
 175   0.0000       1.197610        32.5886 
 176   0.0000       1.257625        34.2217 
 177   0.0000       1.265308        34.4308 
 178   0.0000       1.279254        34.8103 
 179   0.0000       1.304692        35.5025 
 180   0.0000       1.306243        35.5447 
 181   0.0000       1.347658        36.6716 
 182   0.0000       1.363162        37.0935 
 183   0.0000       1.386961        37.7411 
 184   0.0000       1.429279        38.8927 
 185   0.0000       1.434178        39.0260 
 186   0.0000       1.437272        39.1102 
 187   0.0000       1.455022        39.5932 
 188   0.0000       1.471106        40.0308 
 189   0.0000       1.505605        40.9696 
 190   0.0000       1.526277        41.5321 
 191   0.0000       1.538513        41.8651 
 192   0.0000       1.545508        42.0554 
 193   0.0000       1.554869        42.3102 
 194   0.0000       1.567511        42.6542 
 195   0.0000       1.579298        42.9749 
 196   0.0000       1.586493        43.1707 
 197   0.0000       1.596687        43.4481 
 198   0.0000       1.612130        43.8683 
 199   0.0000       1.629012        44.3277 
 200   0.0000       1.636345        44.5272 
 201   0.0000       1.645621        44.7796 
 202   0.0000       1.654452        45.0199 
 203   0.0000       1.674280        45.5595 
 204   0.0000       1.692172        46.0463 
 205   0.0000       1.699176        46.2369 
 206   0.0000       1.706497        46.4361 
 207   0.0000       1.724492        46.9258 
 208   0.0000       1.730521        47.0899 
 209   0.0000       1.745226        47.4900 
 210   0.0000       1.751497        47.6606 
 211   0.0000       1.759588        47.8808 
 212   0.0000       1.781403        48.4744 
 213   0.0000       1.800225        48.9866 
 214   0.0000       1.831167        49.8286 
 215   0.0000       1.837245        49.9940 
 216   0.0000       1.848784        50.3080 
 217   0.0000       1.870705        50.9045 
 218   0.0000       1.885942        51.3191 
 219   0.0000       1.898675        51.6656 
 220   0.0000       1.914682        52.1011 
 221   0.0000       1.932263        52.5795 
 222   0.0000       1.941777        52.8384 
[...]

Memory available               ... 902.1 MB
Memory needed per perturbation ...  15.7 MB
Perturbations treated per batch... 3
Number of batches              ... 1
     CP-SCF ITERATION   0:   4.4585e-02 (   2.5 sec   0/  3 done)
     CP-SCF ITERATION   1:   2.7815e-03 (   2.5 sec   0/  3 done)
     CP-SCF ITERATION   2:   9.3005e-04 (   2.6 sec   3/  3 done)
                    *** THE CP-SCF HAS CONVERGED ***

Forming final perturbed densities           ... done
Transforming perturbed density to AO basis  ... done

 Raw HFC matrix (all values in MHz): 
 -----------------------------------
                -1.6303               0.4267               1.3502
                 0.4173              -2.4443               0.5735
                 1.3461               0.5760              -0.3778

 A(FC)          -1.4875              -1.4875              -1.4875
 A(SD)           2.1440              -0.9952              -1.1487
 A(ORB+DIA)     -0.0102               0.0077               0.0127    A(PC) =   0.0034
 A(ORB)         -0.0106               0.0080               0.0128    A(PC) =   0.0034
 A(DIA)          0.0005              -0.0003              -0.0002    A(PC) =  -0.0000
             ----------           ----------           ----------
 A(Tot)          0.6463              -2.4751              -2.6236    A(iso)=   -1.4841
 Orientation: 
  X           0.5274087            0.7522096           -0.3949947
  Y           0.2257926            0.3240983            0.9186828
  Z           0.8190591           -0.5737081            0.0010889

Notes:  (1) The A matrix conforms to the "SAI" spin Hamiltonian convention.
        (2) Tensor is right-handed.

 Raw EFG matrix (all values in a.u.**-3):
 -----------------------------------
            -0.1390       0.0130       0.0485
             0.0130      -0.1264       0.0973
             0.0485       0.0973       0.2654

 V(El)       0.5842       0.7984      -1.3826
 V(Nuc)     -0.7286      -0.9481       1.6767
         ----------   ----------   ----------
 V(Tot)     -0.1444      -0.1497       0.2940 
 Orientation: 
  X      -0.9465421    0.3013047    0.1152106
  Y      -0.2701435   -0.9355888    0.2273678
  Z       0.1762967    0.1840898    0.9669697

Note: Tensor is right-handed


 Quadrupole tensor eigenvalues (in MHz;Q= 0.0029 I=  1.0)
  e**2qQ            =     0.197450 MHz 
  e**2qQ/(4I*(2I-1))=     0.049363 MHz 
  eta               =     0.018119
  NOTE: the diagonal representation of the SH term I*Q*I = e**2qQ/(4I(2I-1))*[-(1-eta),-(1+eta),2]

 RHO(0)=      0.447980842 a.u.**-3

 -----------------------------------------------------------
 Nucleus  23H : A:ISTP=    1 I=  0.5 P=533.5514 MHz/au**3
                Q:ISTP=    2 I=  1.0 Q=  0.0029 barn     
 -----------------------------------------------------------
 Solving for nuclear perturbation:
Forming RHS of the CP-SCF equations         ... 
Calc. nucleus orbit integrals (SHARK)       ... done

------------------------------------------------------------------------------
                           ORCA CP-SCF CALCULATION
------------------------------------------------------------------------------

Input orbitals are from        ... input_36.gbw
Input Perturbation             ... input_36.pin.tmp
Wavefunction output            ... input_36.pout.tmp
Perturbation mode              ... Imaginary perturbation
Solver                         ... POPLE
Max. number of iterations      ... 64
Convergence tolerance          ... 1.000e-03
Integral handling              ... Direct
DFT GridXC                     ... 1
COSX GridX                     ... 1
COSX IntAccX                   ... 3.067
COSX Algorithm                 ... Auto
Number of perturbations        ... 3
Number of operators            ... 2
Orbital ranges used for CP-SCF:
 Operator 0:  Orbitals   0... 72  to  73...352
 Operator 1:  Orbitals   0... 71  to  72...352
Variables per perturbation     ... 40672
DFT calculation                         ... on
XC functional terms                     ... off
Hybrid DFT                              ... on
   Exchange mixing (SCF)                ...  0.200
   Exchange mixing (CP-SCF)             ...  0.200
   GGA exch. scaling(SCF)               ...  0.720
   GGA exch. scaling (CP-SCF)           ...  0.720
   GGA corr. scaling (SCF)              ...  0.810
   GGA corr. scaling (CP-SCF)           ...  0.810

CP-SCF GRID
-----------

General Integration Accuracy     IntAcc      ... 3.467
Radial Grid Type                 RadialGrid  ... OptM3 with GC (2021)
Angular Grid (max. ang.)         AngularGrid ... 1 (Lebedev-50)
Angular grid pruning method      GridPruning ... 4 (adaptive)
Weight generation scheme         WeightScheme... Becke
Basis function cutoff            BFCut       ... 1.0000e-10
Integration weight cutoff        WCut        ... 1.0000e-14
Angular grids for H and He will be reduced by one unit
Partially contracted basis set               ... off
Rotationally invariant grid construction     ... off

Total number of grid points                  ...    23534
Total number of batches                      ...      381
Average number of points per batch           ...       61
Average number of grid points per atom       ...      981

CP-SCF GRIDX
------------

General Integration Accuracy     IntAcc      ... 3.067
Radial Grid Type                 RadialGrid  ... OptM3 with GC (2021)
Angular Grid (max. ang.)         AngularGrid ... 1 (Lebedev-50)
Angular grid pruning method      GridPruning ... 4 (adaptive)
Weight generation scheme         WeightScheme... Becke
Basis function cutoff            BFCut       ... 1.0000e-10
Integration weight cutoff        WCut        ... 1.0000e-14
Angular grids for H and He will be reduced by one unit
Partially contracted basis set               ... on
Rotationally invariant grid construction     ... off

Total number of grid points                  ...    10166
Total number of batches                      ...      169
Average number of points per batch           ...       60
Average number of grid points per atom       ...      424

Memory available               ... 900.2 MB
Memory needed per perturbation ...  15.7 MB
Perturbations treated per batch... 3
Number of batches              ... 1
     CP-SCF ITERATION   0:   4.7923e-02 (   2.5 sec   0/  3 done)
     CP-SCF ITERATION   1:   5.5316e-03 (   2.5 sec   0/  3 done)
     CP-SCF ITERATION   2:   1.2432e-03 (   2.5 sec   0/  3 done)
     CP-SCF ITERATION   3:   1.9562e-04 (   2.6 sec   3/  3 done)
                    *** THE CP-SCF HAS CONVERGED ***

Forming final perturbed densities           ... done
Transforming perturbed density to AO basis  ... done

 Raw HFC matrix (all values in MHz): 
 -----------------------------------
                 1.0247              -0.5054               3.4886
                -0.4991              -1.6957              -0.4215
                 3.4785              -0.4363               1.8335

 A(FC)           0.3826               0.3826               0.3826
 A(SD)          -2.1571              -2.5048               4.6619
 A(ORB+DIA)      0.0382               0.0210              -0.0444    A(PC) =   0.0049
 A(ORB)          0.0383               0.0213              -0.0456    A(PC) =   0.0047
 A(DIA)         -0.0001              -0.0002               0.0012    A(PC) =   0.0003
             ----------           ----------           ----------
 A(Tot)         -1.7363              -2.1012               5.0000    A(iso)=    0.3875
 Orientation: 
  X          -0.1153306           -0.7397156            0.6629628
  Y           0.9662940           -0.2381937           -0.0976711
  Z           0.2301624            0.6293525            0.7422538

Notes:  (1) The A matrix conforms to the "SAI" spin Hamiltonian convention.
        (2) Tensor is right-handed.

 Raw EFG matrix (all values in a.u.**-3):
 -----------------------------------
            -0.1429       0.0076       0.0019
             0.0076       0.2890       0.0289
             0.0019       0.0289      -0.1461

 V(El)       0.4038       0.5800      -0.9838
 V(Nuc)     -0.5465      -0.7284       1.2749
         ----------   ----------   ----------
 V(Tot)     -0.1427      -0.1484       0.2911 
 Orientation: 
  X       0.9691551    0.2458124    0.0177371
  Y      -0.0333716    0.0595843    0.9976653
  Z       0.2441817   -0.9674843    0.0659496

Note: Tensor is right-handed


 Quadrupole tensor eigenvalues (in MHz;Q= 0.0029 I=  1.0)
  e**2qQ            =     0.195439 MHz 
  e**2qQ/(4I*(2I-1))=     0.048860 MHz 
  eta               =     0.019526
  NOTE: the diagonal representation of the SH term I*Q*I = e**2qQ/(4I(2I-1))*[-(1-eta),-(1+eta),2]

 RHO(0)=      0.445328225 a.u.**-3

 -----------------------------------------------------------
 Nucleus   0V : A:ISTP=   51 I=  3.5 P=140.5173 MHz/au**3
                Q:ISTP=   51 I=  3.5 Q= -0.0430 barn     
 -----------------------------------------------------------
 Solving for nuclear perturbation:
Forming RHS of the CP-SCF equations         ... 
Calc. nucleus orbit integrals (SHARK)       ... done

------------------------------------------------------------------------------
                           ORCA CP-SCF CALCULATION
------------------------------------------------------------------------------

Input orbitals are from        ... input_36.gbw
Input Perturbation             ... input_36.pin.tmp
Wavefunction output            ... input_36.pout.tmp
Perturbation mode              ... Imaginary perturbation
Solver                         ... POPLE
Max. number of iterations      ... 64
Convergence tolerance          ... 1.000e-03
Integral handling              ... Direct
DFT GridXC                     ... 1
COSX GridX                     ... 1
COSX IntAccX                   ... 3.067
COSX Algorithm                 ... Auto
Number of perturbations        ... 3
Number of operators            ... 2
Orbital ranges used for CP-SCF:
 Operator 0:  Orbitals   0... 72  to  73...352
 Operator 1:  Orbitals   0... 71  to  72...352
Variables per perturbation     ... 40672
DFT calculation                         ... on
XC functional terms                     ... off
Hybrid DFT                              ... on
   Exchange mixing (SCF)                ...  0.200
   Exchange mixing (CP-SCF)             ...  0.200
   GGA exch. scaling(SCF)               ...  0.720
   GGA exch. scaling (CP-SCF)           ...  0.720
   GGA corr. scaling (SCF)              ...  0.810
   GGA corr. scaling (CP-SCF)           ...  0.810

CP-SCF GRID
-----------

General Integration Accuracy     IntAcc      ... 3.467
Radial Grid Type                 RadialGrid  ... OptM3 with GC (2021)
Angular Grid (max. ang.)         AngularGrid ... 1 (Lebedev-50)
Angular grid pruning method      GridPruning ... 4 (adaptive)
Weight generation scheme         WeightScheme... Becke
Basis function cutoff            BFCut       ... 1.0000e-10
Integration weight cutoff        WCut        ... 1.0000e-14
Angular grids for H and He will be reduced by one unit
Partially contracted basis set               ... off
Rotationally invariant grid construction     ... off

Total number of grid points                  ...    23534
Total number of batches                      ...      381
Average number of points per batch           ...       61
Average number of grid points per atom       ...      981

CP-SCF GRIDX
------------

General Integration Accuracy     IntAcc      ... 3.067
Radial Grid Type                 RadialGrid  ... OptM3 with GC (2021)
Angular Grid (max. ang.)         AngularGrid ... 1 (Lebedev-50)
Angular grid pruning method      GridPruning ... 4 (adaptive)
Weight generation scheme         WeightScheme... Becke
Basis function cutoff            BFCut       ... 1.0000e-10
Integration weight cutoff        WCut        ... 1.0000e-14
Angular grids for H and He will be reduced by one unit
Partially contracted basis set               ... on
Rotationally invariant grid construction     ... off

Total number of grid points                  ...    10166
Total number of batches                      ...      169
Average number of points per batch           ...       60
Average number of grid points per atom       ...      424

Memory available               ... 898.3 MB
Memory needed per perturbation ...  15.7 MB
Perturbations treated per batch... 3
Number of batches              ... 1
     CP-SCF ITERATION   0:   1.1611e+01 (   2.7 sec   0/  3 done)
     CP-SCF ITERATION   1:   2.5635e+00 (   2.5 sec   0/  3 done)
     CP-SCF ITERATION   2:   4.7237e-01 (   2.5 sec   0/  3 done)
     CP-SCF ITERATION   3:   1.2446e-01 (   2.5 sec   0/  3 done)
     CP-SCF ITERATION   4:   2.9656e-02 (   2.5 sec   0/  3 done)
     CP-SCF ITERATION   5:   4.7149e-03 (   2.6 sec   0/  3 done)
     CP-SCF ITERATION   6:   1.0208e-03 (   2.6 sec   1/  3 done)
     CP-SCF ITERATION   7:   2.1573e-04 (   2.1 sec   3/  3 done)
                    *** THE CP-SCF HAS CONVERGED ***

Forming final perturbed densities           ... done
Transforming perturbed density to AO basis  ... done

 Raw HFC matrix (all values in MHz): 
 -----------------------------------
              -154.9211              96.8128             -88.2779
                98.5218            -198.9999             115.0824
               -89.4197             114.8588            -196.7596

 A(FC)        -171.6293            -171.6293            -171.6293
 A(SD)         103.2271              93.6139            -196.8410
 A(ORB+DIA)     -8.2788              -8.3267             -19.1871    A(PC) = -11.9309
 A(ORB)         -8.2791              -8.3266             -19.1872    A(PC) = -11.9309
 A(DIA)          0.0002              -0.0001               0.0000    A(PC) =   0.0000
             ----------           ----------           ----------
 A(Tot)        -76.6810             -86.3421            -387.6575    A(iso)= -183.5602
 Orientation: 
  X           0.6112500           -0.6202430            0.4916016
  Y           0.7436508            0.2375383           -0.6249472
  Z           0.2708449            0.7475789            0.6064395

Notes:  (1) The A matrix conforms to the "SAI" spin Hamiltonian convention.
        (2) Tensor is right-handed.

 Raw EFG matrix (all values in a.u.**-3):
 -----------------------------------
            -0.1046      -0.2198       0.2188
            -0.2198       0.0227      -0.2411
             0.2188      -0.2411       0.0819

 V(El)      -0.1302      -0.2897       0.4199
 V(Nuc)     -0.0571       0.0132       0.0439
         ----------   ----------   ----------
 V(Tot)     -0.1873      -0.2766       0.4638 
 Orientation: 
  X      -0.1660542    0.8622561   -0.4784771
  Y       0.6636151    0.4566146    0.5925522
  Z       0.7294114   -0.2191289   -0.6480289

Note: Tensor is right-handed


 Quadrupole tensor eigenvalues (in MHz;Q=-0.0430 I=  3.5)
  e**2qQ            =    -4.686332 MHz 
  e**2qQ/(4I*(2I-1))=    -0.055790 MHz 
  eta               =     0.192480
  NOTE: the diagonal representation of the SH term I*Q*I = e**2qQ/(4I(2I-1))*[-(1-eta),-(1+eta),2]

 RHO(0)=   8115.173846676 a.u.**-3


--------------------------------------------------------------------------------
----------------------------------------------------------------------------
                           ORCA EULER ANGLE PROGRAM
----------------------------------------------------------------------------

Only g-tensor available        -->  using g-tensor as reference tensor

Reference tensor               ...  g

g-tensor ordering              ...  |g_min> --> |gx>
                                    |g_mid> --> |gy>
                                    |g_max> --> |gz>

A- and EFG-tensor ordering     ...  the axes |Ax>, |Qx>, |Ay>, etc. are assigned
                                    such that the Euler rotation is minimal. You
                                    can find the respective eigenvalues as Ax,
                                    EFGx, Ay, etc. in the tables below.
                                    The relation of |Ax>, |Ay>,  etc. to Amin, Amid, etc.
                                    (as printed in the ORCA EPR/NMR CALCULATION Output)
                                    is obtained in the detailed printout.

Euler rotation around          ...  z - y - z
   First rotation              -->  by alpha around z
   Second rotation             -->  by beta around y'
   Third rotation              -->  by gamma around z''
   Positive / Negative angle   -->  clockwise / counterclockwise rotation

Plot EFG-tensors                    (-)
Plot HFC-tensors                    (-)
Detailed Printout                   (-)

-------------------------------------------------------------------------
          Euler rotation of hyperfine tensor to g-tensor
-------------------------------------------------------------------------

-------------------------------------------------------------------
 Atom  |   Alpha    Beta    Gamma   |   Ax       Ay       Az 
       |          [degrees]         |           [MHz]         
-------------------------------------------------------------------
  9H       84.9     27.8    -90.8      -2.01     1.81    -2.10
 10H       26.5     25.2     -1.0      -1.48     1.94    -1.43
 11H      -87.6     34.6     86.5      -2.62    -2.29     4.96
 12H       85.3     45.2    -60.3      -0.37     2.15    -0.25
 13H      -15.0     24.8    -17.4       2.72    -1.23    -1.04
 14H      148.2     42.5    169.6      -2.44    -2.55     0.70
 18H     -149.9     25.0    143.5      -2.35    -2.17     1.02
 19H     -165.3     49.1    134.5      -3.27    -3.60     3.17
 20H      -38.6     33.1     69.9      -0.08    -0.08     2.35
 21H       92.0     39.9    -85.5      -0.18     2.21    -0.13
 22H      138.7     36.3   -168.6      -2.62     0.65    -2.48
 23H     -159.8     36.3   -158.6       5.00    -1.74    -2.10
  0V      130.0     42.8   -113.0    -387.66   -76.68   -86.34
-------------------------------------------------------------------


-------------------------------------------------------------------------------
    Euler rotation of Electric Field Gradient (EFG) tensor to g-tensor
-------------------------------------------------------------------------------

-------------------------------------------------------------------
 Atom  |   Alpha    Beta    Gamma  |   EFGx     EFGy     EFGz
       |          [degrees]        |         [a.u.**-3]       
-------------------------------------------------------------------
  9H      122.3     43.3    -84.0      0.22    -0.12    -0.10
 10H     -119.2     15.0    164.2     -0.13     0.27    -0.13
 11H     -118.1     26.1     95.6      0.24    -0.11    -0.12
 12H       69.1     50.3    -41.3     -0.13     0.27    -0.14
 13H      -81.3     30.0    124.3     -0.09     0.20    -0.11
 14H      148.7     36.9   -146.8     -0.13    -0.13     0.26
 18H      143.0     24.0   -166.5     -0.15    -0.14     0.29
 19H      162.8     40.6   -175.1      0.29    -0.14    -0.15
 20H       28.3     37.1     -8.7     -0.14    -0.15     0.28
 21H       15.5     23.2     15.1     -0.14     0.28    -0.15
 22H     -173.5     19.2    147.3     -0.15     0.29    -0.14
 23H      -97.8     22.4     53.7      0.29    -0.15    -0.14
  0V     -143.5     31.1    150.9      0.46    -0.19    -0.28
-------------------------------------------------------------------


Maximum memory used throughout the entire EPRNMR-calculation: 160.0 MB

Timings for individual modules:

Sum of individual times         ...      863.126 sec (=  14.385 min)
GTO integral calculation        ...        1.027 sec (=   0.017 min)   0.1 %
Spin-Orbit-Coupling Matrices    ...        5.323 sec (=   0.089 min)   0.6 %
SCF iterations                  ...      102.093 sec (=   1.702 min)  11.8 %
EPR/NMR calculation             ...      754.684 sec (=  12.578 min)  87.4 %
                             ****ORCA TERMINATED NORMALLY****
TOTAL RUN TIME: 0 days 0 hours 14 minutes 23 seconds 981 msec
