
                                 *****************
                                 * O   R   C   A *
                                 *****************

                                            #,                                       
                                            ###                                      
                                            ####                                     
                                            #####                                    
                                            ######                                   
                                           ########,                                 
                                     ,,################,,,,,                         
                               ,,#################################,,                 
                          ,,##########################################,,             
                       ,#########################################, ''#####,          
                    ,#############################################,,   '####,        
                  ,##################################################,,,,####,       
                ,###########''''           ''''###############################       
              ,#####''   ,,,,##########,,,,          '''####'''          '####       
            ,##' ,,,,###########################,,,                        '##       
           ' ,,###''''                  '''############,,,                           
         ,,##''                                '''############,,,,        ,,,,,,###''
      ,#''                                            '''#######################'''  
     '                                                          ''''####''''         
             ,#######,   #######,   ,#######,      ##                                
            ,#'     '#,  ##    ##  ,#'     '#,    #''#        ######   ,####,        
            ##       ##  ##   ,#'  ##            #'  '#       #        #'  '#        
            ##       ##  #######   ##           ,######,      #####,   #    #        
            '#,     ,#'  ##    ##  '#,     ,#' ,#      #,         ##   #,  ,#        
             '#######'   ##     ##  '#######'  #'      '#     #####' # '####'        



                  #######################################################
                  #                        -***-                        #
                  #          Department of theory and spectroscopy      #
                  #    Directorship and core code : Frank Neese         #
                  #        Max Planck Institute fuer Kohlenforschung    #
                  #                Kaiser Wilhelm Platz 1               #
                  #                 D-45470 Muelheim/Ruhr               #
                  #                      Germany                        #
                  #                                                     #
                  #                  All rights reserved                #
                  #                        -***-                        #
                  #######################################################


                         Program Version 5.0.4 -  RELEASE  -


 With contributions from (in alphabetic order):
   Daniel Aravena         : Magnetic Suceptibility
   Michael Atanasov       : Ab Initio Ligand Field Theory (pilot matlab implementation)
   Alexander A. Auer      : GIAO ZORA, VPT2 properties, NMR spectrum
   Ute Becker             : Parallelization
   Giovanni Bistoni       : ED, misc. LED, open-shell LED, HFLD
   Martin Brehm           : Molecular dynamics
   Dmytro Bykov           : SCF Hessian
   Vijay G. Chilkuri      : MRCI spin determinant printing, contributions to CSF-ICE
   Dipayan Datta          : RHF DLPNO-CCSD density
   Achintya Kumar Dutta   : EOM-CC, STEOM-CC
   Dmitry Ganyushin       : Spin-Orbit,Spin-Spin,Magnetic field MRCI
   Miquel Garcia          : C-PCM and meta-GGA Hessian, CC/C-PCM, Gaussian charge scheme
   Yang Guo               : DLPNO-NEVPT2, F12-NEVPT2, CIM, IAO-localization
   Andreas Hansen         : Spin unrestricted coupled pair/coupled cluster methods
   Benjamin Helmich-Paris : MC-RPA, TRAH-SCF, COSX integrals
   Lee Huntington         : MR-EOM, pCC
   Robert Izsak           : Overlap fitted RIJCOSX, COSX-SCS-MP3, EOM
   Marcus Kettner         : VPT2
   Christian Kollmar      : KDIIS, OOCD, Brueckner-CCSD(T), CCSD density, CASPT2, CASPT2-K
   Simone Kossmann        : Meta GGA functionals, TD-DFT gradient, OOMP2, MP2 Hessian
   Martin Krupicka        : Initial AUTO-CI
   Lucas Lang             : DCDCAS
   Marvin Lechner         : AUTO-CI (C++ implementation), FIC-MRCC
   Dagmar Lenk            : GEPOL surface, SMD
   Dimitrios Liakos       : Extrapolation schemes; Compound Job, initial MDCI parallelization
   Dimitrios Manganas     : Further ROCIS development; embedding schemes
   Dimitrios Pantazis     : SARC Basis sets
   Anastasios Papadopoulos: AUTO-CI, single reference methods and gradients
   Taras Petrenko         : DFT Hessian,TD-DFT gradient, ASA, ECA, R-Raman, ABS, FL, XAS/XES, NRVS
   Peter Pinski           : DLPNO-MP2, DLPNO-MP2 Gradient
   Christoph Reimann      : Effective Core Potentials
   Marius Retegan         : Local ZFS, SOC
   Christoph Riplinger    : Optimizer, TS searches, QM/MM, DLPNO-CCSD(T), (RO)-DLPNO pert. Triples
   Tobias Risthaus        : Range-separated hybrids, TD-DFT gradient, RPA, STAB
   Michael Roemelt        : Original ROCIS implementation
   Masaaki Saitow         : Open-shell DLPNO-CCSD energy and density
   Barbara Sandhoefer     : DKH picture change effects
   Avijit Sen             : IP-ROCIS
   Kantharuban Sivalingam : CASSCF convergence, NEVPT2, FIC-MRCI
   Bernardo de Souza      : ESD, SOC TD-DFT
   Georgi Stoychev        : AutoAux, RI-MP2 NMR, DLPNO-MP2 response
   Willem Van den Heuvel  : Paramagnetic NMR
   Boris Wezisla          : Elementary symmetry handling
   Frank Wennmohs         : Technical directorship


 We gratefully acknowledge several colleagues who have allowed us to
 interface, adapt or use parts of their codes:
   Stefan Grimme, W. Hujo, H. Kruse, P. Pracht,  : VdW corrections, initial TS optimization,
                  C. Bannwarth, S. Ehlert          DFT functionals, gCP, sTDA/sTD-DF
   Ed Valeev, F. Pavosevic, A. Kumar             : LibInt (2-el integral package), F12 methods
   Garnet Chan, S. Sharma, J. Yang, R. Olivares  : DMRG
   Ulf Ekstrom                                   : XCFun DFT Library
   Mihaly Kallay                                 : mrcc  (arbitrary order and MRCC methods)
   Jiri Pittner, Ondrej Demel                    : Mk-CCSD
   Frank Weinhold                                : gennbo (NPA and NBO analysis)
   Christopher J. Cramer and Donald G. Truhlar   : smd solvation model
   Lars Goerigk                                  : TD-DFT with DH, B97 family of functionals
   V. Asgeirsson, H. Jonsson                     : NEB implementation
   FAccTs GmbH                                   : IRC, NEB, NEB-TS, DLPNO-Multilevel, CI-OPT
                                                   MM, QMMM, 2- and 3-layer-ONIOM, Crystal-QMMM,
                                                   LR-CPCM, SF, NACMEs, symmetry and pop. for TD-DFT,
                                                   nearIR, NL-DFT gradient (VV10), updates on ESD,
                                                   ML-optimized integration grids
   S Lehtola, MJT Oliveira, MAL Marques          : LibXC Library
   Liviu Ungur et al                             : ANISO software


 Your calculation uses the libint2 library for the computation of 2-el integrals
 For citations please refer to: http://libint.valeyev.net

 Your ORCA version has been built with support for libXC version: 5.1.0
 For citations please refer to: https://tddft.org/programs/libxc/

 This ORCA versions uses:
   CBLAS   interface :  Fast vector & matrix operations
   LAPACKE interface :  Fast linear algebra routines
   SCALAPACK package :  Parallel linear algebra routines
   Shared memory     :  Shared parallel matrices
   BLAS/LAPACK       :  OpenBLAS 0.3.15  USE64BITINT DYNAMIC_ARCH NO_AFFINITY Prescott SINGLE_THREADED
        Core in use  :  Prescott
   Copyright (c) 2011-2014, The OpenBLAS Project


================================================================================

----- Orbital basis set information -----
Your calculation utilizes the basis: TZVP 

The basis set includes element-specific modifications.

Your calculation utilizes the basis: CP(PPP) 

----- AuxJ basis set information -----
Your calculation utilizes the auxiliary basis: def2/J
   F. Weigend, Phys. Chem. Chem. Phys. 8, 1057 (2006).

================================================================================
                                        WARNINGS
                       Please study these warnings very carefully!
================================================================================


WARNING: your system is open-shell and RHF/RKS was chosen
  ===> : WILL SWITCH to UHF/UKS


INFO   : the flag for use of the SHARK integral package has been found!

================================================================================
                                       INPUT FILE
================================================================================
NAME = input_16.inp
|  1> ! nofrozencore ReducedPop printbasis
|  2> ! B3LYP TZVP
|  3> 
|  4> %basis
|  5> newgto V "CP(PPP)" end
|  6> end
|  7> 
|  8> %pal
|  9> nprocs 4
| 10> end
| 11> 
| 12> % sym SymThresh 1e-2 end
| 13> * xyz -2 2 
| 14> V 0.013227814204706364 -0.37512916355009973 -0.3492321650414926
| 15> S -2.1278212016141484 -1.0752863754135902 0.5626858967632152
| 16> S -1.313451070324307 1.562052385295552 -1.086043844198939
| 17> S 1.1528959875689337 -1.0626717459910018 1.8444458379035935
| 18> S 2.160637297012968 1.0711415698860038 -0.4095339846272122
| 19> O 0.39364539904619095 -1.4285160832704078 -1.506864619598436
| 20> C -0.09654349912294329 2.629198713017468 -2.0823803589967396
| 21> C 2.4201755618048715 1.7075265465466811 -2.1147980028602826
| 22> C 1.1178714290854548 2.0450604170907396 -2.8717789056652836
| 23> H 2.9804636531396604 0.9711265204039016 -2.713500264301922
| 24> H 3.0585572514482324 2.604258377047702 -2.0335968391778882
| 25> H 0.7760902013915754 1.12808286539578 -3.394700292675398
| 26> H 1.3710373195873615 2.7879486830387803 -3.668576952058527
| 27> H 0.2775208411777213 3.4066714277215144 -1.3943128917014536
| 28> H -0.7365612924050885 3.1318740085996137 -2.8280696347635668
| 29> C -2.1120970481629007 -0.6111580857663323 2.34426479386779
| 30> C -0.12876152468154656 -2.248397915087104 2.5037811815138014
| 31> C -1.4079095352258186 -1.691352572570437 3.1602639445153287
| 32> H 0.36885237436737917 -2.9033884189133663 3.235339237065611
| 33> H -0.4374956471720027 -2.869641454087045 1.6617659506599427
| 34> H -1.185610390668906 -1.3115274193772213 4.174820181362264
| 35> H -2.0988833173839656 -2.5465178547135183 3.280538853636936
| 36> H -3.1518382479594247 -0.49455203178942686 2.677449560228168
| 37> H -1.6113773718616342 0.3525372209117034 2.4626686764413
| 38> * 
| 39> 
| 40> % eprnmr
| 41> gtensor true
| 42> Nuclei = all H {aiso,adip,aorb,fgrad,rho}
| 43> Nuclei = all V {aiso,adip,aorb,fgrad,rho}
| 44> end
| 45> 
| 46>                          ****END OF INPUT****
================================================================================

------------------------------------------------------------------------------
                            SYMMETRY HANDLING SETUP
------------------------------------------------------------------------------

------------------
SYMMETRY DETECTION
------------------
The point group will now be determined using a tolerance of 1.0000e-02.
Splitting atom subsets according to nuclear charge, mass and basis set.
Splitting atom subsets according to distance from the molecule's center.
Identifying relative distance patterns of the atoms.
Splitting atom subsets according to atoms' relative distance patterns.
Bring atoms of each subset into input order.
The molecule is neither linear nor planar.
There is at least one atom subset not centered around the molecule's center.
The molecule does not have a center of inversion.
Analyzing the first atom subset for its symmetry.
The subset is an off-center atom pair.
Testing point group C2v.

WARNING (ORCA_SYM): Transformation matrix has a determinant of 0.9972645318219129 which is suspiciously far from one!

WARNING (ORCA_SYM): Transformation matrix has a determinant of 0.9972645318219121 which is suspiciously far from one!
Test failed.
Testing point group C2.
Test failed.
Testing point group Cs.
Test failed.
Testing point group Cs.
Test failed.
No testing is needed for point group C1.
This point group has been found:    C1
Largest non-degenerate subgroup:    C1


Mass-centered symmetry-perfected Cartesians (point group C1):

Atom          Symmetry-perfected Cartesians (x, y, z; au)
  0       0.025033261967   -0.710210170559   -0.660496195347
  1      -4.020963017232   -2.033315551671    1.062779198040
  2      -2.482026497449    2.950532428445   -2.052868481230
  3       2.178693993172   -2.009477356781    3.484954456226
  4       4.083049081861    2.022845431141   -0.774450119742
  5       0.743918313846   -2.700822961885   -2.848104498199
  6      -0.182404457583    4.967146732659   -3.935671631423
  7       4.573505323590    3.225438752772   -3.996932100232
  8       2.112507169677    3.863285329022   -5.427418695142
  9       5.632296372311    1.833844378349   -5.128315410116
 10       5.779871885926    4.920016327988   -3.843484139117
 11       1.466634251620    2.130448885365   -6.415596906161
 12       2.590921369176    5.267140699768   -6.933148786869
 13       0.524474702052    6.436357240046   -2.635412556574
 14      -1.391862807723    5.917065375597   -5.344820143624
 15      -3.991248673521   -1.156240193232    4.429475399541
 16      -0.243287702464   -4.250175086196    4.730917686064
 17      -2.660527127143   -3.197511944663    5.971490319777
 18       0.697066287171   -5.487927758747    6.113362062121
 19      -0.826710642168   -5.424155237374    3.139739499160
 20      -2.240442624125   -2.479746426353    7.888723754880
 21      -3.966278341142   -4.813540127151    6.198776958799
 22      -5.956074791291   -0.935886685658    5.059103359957
 23      -3.045025615446    0.664880012935    4.653226310798


------------------
SYMMETRY REDUCTION
------------------
ORCA supports only abelian point groups.
It is now checked, if the determined point group is supported:
Point Group ( C1    ) is          ... supported

The point group is C1 - hence turning off symmetry
If this is a round-off problem, please increase the symmetry
        detection tolerance (%method SymThresh)

Storing the symmetry object:
Symmetry file                     ... input_16.sym.tmp
Writing symmetry information      ... done

                       ****************************
                       * Single Point Calculation *
                       ****************************

---------------------------------
CARTESIAN COORDINATES (ANGSTROEM)
---------------------------------
  V      0.013247   -0.375827   -0.349520
  S     -2.127802   -1.075984    0.562399
  S     -1.313432    1.561355   -1.086331
  S      1.152915   -1.063370    1.844158
  S      2.160657    1.070444   -0.409821
  O      0.393665   -1.429214   -1.507152
  C     -0.096524    2.628501   -2.082668
  C      2.420195    1.706829   -2.115085
  C      1.117891    2.044363   -2.872066
  H      2.980483    0.970429   -2.713788
  H      3.058576    2.603561   -2.033884
  H      0.776109    1.127385   -3.394988
  H      1.371057    2.787251   -3.668864
  H      0.277540    3.405974   -1.394600
  H     -0.736542    3.131176   -2.828357
  C     -2.112078   -0.611856    2.343977
  C     -0.128742   -2.249096    2.503494
  C     -1.407890   -1.692050    3.159977
  H      0.368872   -2.904086    3.235052
  H     -0.437476   -2.870339    1.661479
  H     -1.185591   -1.312225    4.174533
  H     -2.098864   -2.547216    3.280251
  H     -3.151819   -0.495250    2.677162
  H     -1.611358    0.351839    2.462381

----------------------------
CARTESIAN COORDINATES (A.U.)
----------------------------
  NO LB      ZA    FRAG     MASS         X           Y           Z
   0 V    23.0000    0    50.940    0.025033   -0.710210   -0.660496
   1 S    16.0000    0    32.060   -4.020963   -2.033316    1.062779
   2 S    16.0000    0    32.060   -2.482026    2.950532   -2.052868
   3 S    16.0000    0    32.060    2.178694   -2.009477    3.484954
   4 S    16.0000    0    32.060    4.083049    2.022845   -0.774450
   5 O     8.0000    0    15.999    0.743918   -2.700823   -2.848104
   6 C     6.0000    0    12.011   -0.182404    4.967147   -3.935672
   7 C     6.0000    0    12.011    4.573505    3.225439   -3.996932
   8 C     6.0000    0    12.011    2.112507    3.863285   -5.427419
   9 H     1.0000    0     1.008    5.632296    1.833844   -5.128315
  10 H     1.0000    0     1.008    5.779872    4.920016   -3.843484
  11 H     1.0000    0     1.008    1.466634    2.130449   -6.415597
  12 H     1.0000    0     1.008    2.590921    5.267141   -6.933149
  13 H     1.0000    0     1.008    0.524475    6.436357   -2.635413
  14 H     1.0000    0     1.008   -1.391863    5.917065   -5.344820
  15 C     6.0000    0    12.011   -3.991249   -1.156240    4.429475
  16 C     6.0000    0    12.011   -0.243288   -4.250175    4.730918
  17 C     6.0000    0    12.011   -2.660527   -3.197512    5.971490
  18 H     1.0000    0     1.008    0.697066   -5.487928    6.113362
  19 H     1.0000    0     1.008   -0.826711   -5.424155    3.139739
  20 H     1.0000    0     1.008   -2.240443   -2.479746    7.888724
  21 H     1.0000    0     1.008   -3.966278   -4.813540    6.198777
  22 H     1.0000    0     1.008   -5.956075   -0.935887    5.059103
  23 H     1.0000    0     1.008   -3.045026    0.664880    4.653226

--------------------------------
INTERNAL COORDINATES (ANGSTROEM)
--------------------------------
 V      0   0   0     0.000000000000     0.00000000     0.00000000
 S      1   0   0     2.430206896729     0.00000000     0.00000000
 S      1   2   0     2.460821136610    82.19399899     0.00000000
 S      1   2   3     2.565888058481    89.61631490   135.55453242
 S      1   2   3     2.589730262150   154.18092249    73.60106936
 O      1   2   3     1.610731026999   106.81885829   245.87248506
 C      3   1   2     1.900618786695   104.70096302   182.95442307
 C      5   1   2     1.838551419268   109.38742466   228.29721425
 C      8   5   1     1.543679129571   114.29387244    35.19592992
 H      8   5   1     1.102112581205   110.14135512   273.44767442
 H      8   5   1     1.103744891942   107.13510056   157.66494259
 H      9   8   5     1.109553520525   108.07567308   271.32726989
 H      9   8   5     1.118419899024   107.67577107   156.72276239
 H      7   3   1     1.103550992181   106.60344509   263.01903832
 H      7   3   1     1.103792428177   103.80355544   149.92056387
 C      2   1   3     1.841109905698   106.43672381   261.87372966
 C      4   1   2     1.866364279052    99.62798977    21.14936437
 C     16   2   1     1.525960286690   110.05640856   276.30843539
 H     17   4   1     1.100822120632   107.59945354   159.07638478
 H     17   4   1     1.090985766236   106.46596741    43.97994023
 H     18  16   2     1.105897108412   109.88999975   166.62591748
 H     18  16   2     1.105992080070   108.49279996   283.22473232
 H     16   2   1     1.098030428956   108.19855158   155.50393233
 H     16   2   1     1.092450601976   109.34005036    38.22154138

---------------------------
INTERNAL COORDINATES (A.U.)
---------------------------
 V      0   0   0     0.000000000000     0.00000000     0.00000000
 S      1   0   0     4.592425483584     0.00000000     0.00000000
 S      1   2   0     4.650278012758    82.19399899     0.00000000
 S      1   2   3     4.848825720827    89.61631490   135.55453242
 S      1   2   3     4.893880956191   154.18092249    73.60106936
 O      1   2   3     3.043840516438   106.81885829   245.87248506
 C      3   1   2     3.591648991839   104.70096302   182.95442307
 C      5   1   2     3.474358665548   109.38742466   228.29721425
 C      8   5   1     2.917130793540   114.29387244    35.19592992
 H      8   5   1     2.082690947226   110.14135512   273.44767442
 H      8   5   1     2.085775567486   107.13510056   157.66494259
 H      9   8   5     2.096752284720   108.07567308   271.32726989
 H      9   8   5     2.113507311883   107.67577107   156.72276239
 H      7   3   1     2.085409150039   106.60344509   263.01903832
 H      7   3   1     2.085865397950   103.80355544   149.92056387
 C      2   1   3     3.479193504220   106.43672381   261.87372966
 C      4   1   2     3.526917353542    99.62798977    21.14936437
 C     16   2   1     2.883647033085   110.05640856   276.30843539
 H     17   4   1     2.080252330156   107.59945354   159.07638478
 H     17   4   1     2.061664314192   106.46596741    43.97994023
 H     18  16   2     2.089842667194   109.88999975   166.62591748
 H     18  16   2     2.090022137618   108.49279996   283.22473232
 H     16   2   1     2.074976797439   108.19855158   155.50393233
 H     16   2   1     2.064432452571   109.34005036    38.22154138

---------------------
BASIS SET INFORMATION
---------------------
There are 5 groups of distinct atoms

 Group   1 Type V   : 17s11p5d1f contracted to 17s7p3d1f pattern {11111111111111111/3311111/311/1}
 Group   2 Type S   : 14s9p1d contracted to 5s4p1d pattern {73211/6111/1}
 Group   3 Type O   : 11s6p1d contracted to 5s3p1d pattern {62111/411/1}
 Group   4 Type C   : 11s6p1d contracted to 5s3p1d pattern {62111/411/1}
 Group   5 Type H   : 5s1p contracted to 3s1p pattern {311/1}

Atom   0V    basis set group =>   1
Atom   1S    basis set group =>   2
Atom   2S    basis set group =>   2
Atom   3S    basis set group =>   2
Atom   4S    basis set group =>   2
Atom   5O    basis set group =>   3
Atom   6C    basis set group =>   4
Atom   7C    basis set group =>   4
Atom   8C    basis set group =>   4
Atom   9H    basis set group =>   5
Atom  10H    basis set group =>   5
Atom  11H    basis set group =>   5
Atom  12H    basis set group =>   5
Atom  13H    basis set group =>   5
Atom  14H    basis set group =>   5
Atom  15C    basis set group =>   4
Atom  16C    basis set group =>   4
Atom  17C    basis set group =>   4
Atom  18H    basis set group =>   5
Atom  19H    basis set group =>   5
Atom  20H    basis set group =>   5
Atom  21H    basis set group =>   5
Atom  22H    basis set group =>   5
Atom  23H    basis set group =>   5

-------------------------
BASIS SET IN INPUT FORMAT
-------------------------

 # Basis set for element : H 
 NewGTO H 
 S 3 
   1      34.0613410000      0.0254393168
   2       5.1235746000      0.1900859340
   3       1.1646626000      0.8524411390
 S 1 
   1       0.3272304100      1.0000000000
 S 1 
   1       0.1030724100      1.0000000000
 P 1 
   1       0.8000000000      1.0000000000
  end;

 # Basis set for element : C 
 NewGTO C 
 S 6 
   1   13575.3496820000      0.0006064601
   2    2035.2333680000      0.0046978985
   3     463.2256235900      0.0243324735
   4     131.2001959800      0.0973999560
   5      42.8530158900      0.3019558443
   6      15.5841857700      0.6623361013
 S 2 
   1       6.2067138500      0.6559530795
   2       2.5764896500      0.3758563390
 S 1 
   1       0.5769633900      1.0000000000
 S 1 
   1       0.2297283100      1.0000000000
 S 1 
   1       0.0951644400      1.0000000000
 P 4 
   1      34.6972322400      0.0113272290
   2       7.9582622800      0.0761696612
   3       2.3780826900      0.3019225154
   4       0.8143320800      0.7278502776
 P 1 
   1       0.2888754700      1.0000000000
 P 1 
   1       0.1005682400      1.0000000000
 D 1 
   1       0.8000000000      1.0000000000
  end;

 # Basis set for element : O 
 NewGTO O 
 S 6 
   1   27032.3826310000      0.0005722654
   2    4052.3871392000      0.0044353333
   3     922.3272271000      0.0230201034
   4     261.2407098900      0.0928224938
   5      85.3546413500      0.2937849971
   6      31.0350352400      0.6740160462
 S 2 
   1      12.2608607300      0.6383993750
   2       4.9987076000      0.3953458663
 S 1 
   1       1.1703108200      1.0000000000
 S 1 
   1       0.4647474100      1.0000000000
 S 1 
   1       0.1850453600      1.0000000000
 P 4 
   1      63.2749548000      0.0120183316
   2      14.6270493800      0.0830054304
   3       4.4501223500      0.3199174388
   4       1.5275799600      0.7071554258
 P 1 
   1       0.5293511800      1.0000000000
 P 1 
   1       0.1747842100      1.0000000000
 D 1 
   1       1.2000000000      1.0000000000
  end;

 # Basis set for element : S 
 NewGTO S 
 S 7 
   1   60700.9281040000      0.0005238013
   2    9102.6106854000      0.0040506304
   3    2071.4166009000      0.0208270003
   4     586.0247682100      0.0814968475
   5     190.5539502100      0.2374911358
   6      67.6303842600      0.4472617145
   7      25.1273069100      0.3489191913
 S 3 
   1     112.5746301000      0.1004556993
   2      34.7955542200      0.4339117282
   3       6.5115556200     -1.2084330582
 S 2 
   1       3.2399032300      0.6749812922
   2       1.5477160900      0.3470879597
 S 1 
   1       0.4054103000      1.0000000000
 S 1 
   1       0.1455065100      1.0000000000
 P 6 
   1     564.3671602700      0.0025564845
   2     133.4262437900      0.0202874255
   3      42.4682711900      0.0927670112
   4      15.6165275800      0.2650208365
   5       6.1093988500      0.4486298663
   6       2.4404160200      0.3596369916
 P 1 
   1       0.8388220100      1.0000000000
 P 1 
   1       0.3128874700      1.0000000000
 P 1 
   1       0.1077010900      1.0000000000
 D 1 
   1       0.5500000000      1.0000000000
  end;

 # Basis set for element : V 
 NewGTO V 
 S 1 
   1  4239814.9912500000      1.0000000000
 S 1 
   1  1695925.9965000001      1.0000000000
 S 1 
   1  678370.3986000001      1.0000000000
 S 1 
   1  271348.1594400000      1.0000000000
 S 1 
   1   40672.0050780000      1.0000000000
 S 1 
   1    9257.0761385000      1.0000000000
 S 1 
   1    2622.7328773000      1.0000000000
 S 1 
   1     858.5948018500      1.0000000000
 S 1 
   1     314.1941865000      1.0000000000
 S 1 
   1     124.4786212700      1.0000000000
 S 1 
   1      50.4693993090      1.0000000000
 S 1 
   1      12.5138469110      1.0000000000
 S 1 
   1       5.3447758082      1.0000000000
 S 1 
   1       1.5755631295      1.0000000000
 S 1 
   1       0.6306903307      1.0000000000
 S 1 
   1       0.0879544416      1.0000000000
 S 1 
   1       0.0342969197      1.0000000000
 P 3 
   1    1450.0319327000     -0.0222847647
   2     343.7504988400     -0.1817959329
   3     110.8252170800     -0.8607412073
 P 3 
   1      41.8224645460     -0.2522537814
   2      17.0880737100     -0.4620379520
   3       7.2613218939     -0.3990010670
 P 1 
   1       2.9458145262      1.0000000000
 P 1 
   1       1.1650209680      1.0000000000
 P 1 
   1       0.4339937839      1.0000000000
 D 3 
   1      27.3603358640      0.0575501019
   2       7.4542765527      0.3023798347
   3       2.4632270217      0.7724212088
 D 1 
   1       0.8249954244      1.0000000000
 D 1 
   1       0.2526297057      1.0000000000
 P 1 
   1       0.1112480000      1.0000000000
 P 1 
   1       0.0363780000      1.0000000000
 F 1 
   1       1.8000000000      1.0000000000
  end;

---------------------------------
AUXILIARY/J BASIS SET INFORMATION
---------------------------------
There are 5 groups of distinct atoms

 Group   1 Type V   : 19s5p5d3f3g contracted to 8s5p5d2f3g pattern {121111111/11111/11111/21/111}
 Group   2 Type S   : 14s5p5d2f1g contracted to 8s4p3d1f1g pattern {71111111/2111/311/2/1}
 Group   3 Type O   : 12s5p4d2f1g contracted to 6s4p3d1f1g pattern {711111/2111/211/2/1}
 Group   4 Type C   : 12s5p4d2f1g contracted to 6s4p3d1f1g pattern {711111/2111/211/2/1}
 Group   5 Type H   : 5s2p1d contracted to 3s1p1d pattern {311/2/1}

Atom   0V    basis set group =>   1
Atom   1S    basis set group =>   2
Atom   2S    basis set group =>   2
Atom   3S    basis set group =>   2
Atom   4S    basis set group =>   2
Atom   5O    basis set group =>   3
Atom   6C    basis set group =>   4
Atom   7C    basis set group =>   4
Atom   8C    basis set group =>   4
Atom   9H    basis set group =>   5
Atom  10H    basis set group =>   5
Atom  11H    basis set group =>   5
Atom  12H    basis set group =>   5
Atom  13H    basis set group =>   5
Atom  14H    basis set group =>   5
Atom  15C    basis set group =>   4
Atom  16C    basis set group =>   4
Atom  17C    basis set group =>   4
Atom  18H    basis set group =>   5
Atom  19H    basis set group =>   5
Atom  20H    basis set group =>   5
Atom  21H    basis set group =>   5
Atom  22H    basis set group =>   5
Atom  23H    basis set group =>   5

-------------------------------------
AUXILIARY/J BASIS SET IN INPUT FORMAT
-------------------------------------

 # Auxiliary/J basis set for element : H 
 NewAuxJGTO H 
 S 3 
   1      15.6752927000      0.1007184237
   2       3.6063578000      0.3404257499
   3       1.2080016000      0.6491996172
 S 1 
   1       0.4726794000      1.0000000000
 S 1 
   1       0.2018100000      1.0000000000
 P 2 
   1       2.0281365000      0.5596620919
   2       0.5358730000      0.5596620919
 D 1 
   1       2.2165124000      1.0000000000
  end;

 # Auxiliary/J basis set for element : C 
 NewAuxJGTO C 
 S 7 
   1    1861.0916331000      0.0134602335
   2     642.9939764000      0.0299160374
   3     235.1105725000      0.1008649584
   4      90.7028894000      0.2370970548
   5      36.7794552000      0.3924037254
   6      15.6046273000      0.3195862154
   7       6.8907294000      0.0530104441
 S 1 
   1       3.1478850000     -1.0000000000
 S 1 
   1       1.4777287000      1.0000000000
 S 1 
   1       0.7076466000      1.0000000000
 S 1 
   1       0.3430122000      1.0000000000
 S 1 
   1       0.1669453000      1.0000000000
 P 2 
   1      13.5472892000     -0.6769313712
   2       5.4669419000     -0.3779500978
 P 1 
   1       2.1751721000      1.0000000000
 P 1 
   1       0.8582194000      1.0000000000
 P 1 
   1       0.3376720000      1.0000000000
 D 2 
   1       5.9287253000     -0.3533329857
   2       1.9809209000     -0.7456525731
 D 1 
   1       0.8055417000     -1.0000000000
 D 1 
   1       0.3531244000     -1.0000000000
 F 2 
   1       1.6755626000      0.6311076882
   2       0.5997536000      0.4968166032
 G 1 
   1       1.0024600000     -1.0000000000
  end;

 # Auxiliary/J basis set for element : O 
 NewAuxJGTO O 
 S 7 
   1    2876.8216605000      0.0168151159
   2    1004.7443032000      0.0340137548
   3     369.7579954000      0.1194951309
   4     142.9442404000      0.2664627624
   5      57.8366425000      0.4202764046
   6      24.3864983000      0.2765077335
   7      10.6622662000      0.0057008815
 S 1 
   1       4.8070437000     -1.0000000000
 S 1 
   1       2.2210770000      1.0000000000
 S 1 
   1       1.0447795000      1.0000000000
 S 1 
   1       0.4968425000      1.0000000000
 S 1 
   1       0.2371384000      1.0000000000
 P 2 
   1      64.2613382000     -0.2731534179
   2      16.3006076000     -0.8168011598
 P 1 
   1       4.3550542000      1.0000000000
 P 1 
   1       1.2019554000      1.0000000000
 P 1 
   1       0.3354196000      1.0000000000
 D 2 
   1       9.2146611000     -0.4661230638
   2       2.8435251000     -0.6600908911
 D 1 
   1       0.9955759000     -1.0000000000
 D 1 
   1       0.3649441000     -1.0000000000
 F 2 
   1       2.6420115000      0.5931563945
   2       0.7345613000      0.5931563945
 G 1 
   1       1.3931000000     -1.0000000000
  end;

 # Auxiliary/J basis set for element : S 
 NewAuxJGTO S 
 S 7 
   1    7399.0303145000      0.0295137551
   2    2710.1675859000      0.0559686311
   3    1034.3279062000      0.1764696370
   4     410.4645411000      0.3577969368
   5     168.9762502000      0.4299293578
   6      71.9687889000      0.1259148089
   7      31.6172683000     -0.0646025788
 S 1 
   1      14.2796836000      1.0000000000
 S 1 
   1       6.6060948000      1.0000000000
 S 1 
   1       3.1181477000      1.0000000000
 S 1 
   1       1.4954039000     -1.0000000000
 S 1 
   1       0.7254779000      1.0000000000
 S 1 
   1       0.3544216000      1.0000000000
 S 1 
   1       0.1735525000      1.0000000000
 P 2 
   1      12.6998799000      1.4059102813
   2       4.4295784000     -1.2124994202
 P 1 
   1       1.5232889000      1.0000000000
 P 1 
   1       0.5194667000     -1.0000000000
 P 1 
   1       0.1766547000     -1.0000000000
 D 3 
   1      16.8546461000      1.0295742104
   2       5.0810461000     -0.7461553923
   3       1.5102323000      0.8357028005
 D 1 
   1       0.4451331000      1.0000000000
 D 1 
   1       0.1308362000      1.0000000000
 F 2 
   1       1.0809860000      0.5572698934
   2       0.4161474000      0.5572698934
 G 1 
   1       0.6707100000     -1.0000000000
  end;

 # Auxiliary/J basis set for element : V 
 NewAuxJGTO V 
 S 12 
   1   11942.0842430000      0.0459866720
   2    2430.7110193000      0.1744615821
   3     841.0764301000      0.2900402792
   4     494.7508273000      0.1411212903
   5     291.0298903000      0.2660697186
   6     171.1940483000      0.0446365706
   7      59.2366916000     -0.0408204801
   8      34.8451117000      0.1394665381
   9      20.4971240000      0.2164746715
  10      12.0571314000      0.0864266611
  11       7.0924300000     -0.0568501658
  12       4.1720176000     -0.0126212852
 S 1 
   1       2.4541279000      1.0000000000
 S 1 
   1       1.4436046000      1.0000000000
 S 1 
   1       0.8491792000      1.0000000000
 S 1 
   1       0.2938336000      1.0000000000
 S 1 
   1       0.1728433000      1.0000000000
 S 1 
   1       0.1016725000      1.0000000000
 S 1 
   1       0.0598074000      1.0000000000
 P 1 
   1      16.7130979000     -1.0000000000
 P 1 
   1       4.7454037000     -1.0000000000
 P 1 
   1       1.3889998000      1.0000000000
 P 1 
   1       0.4142440000     -1.0000000000
 P 1 
   1       0.1243234000      1.0000000000
 D 1 
   1       7.7143225000      1.0000000000
 D 1 
   1       3.1170731000      1.0000000000
 D 1 
   1       1.2767950000     -1.0000000000
 D 1 
   1       0.5273386000      1.0000000000
 D 1 
   1       0.2184050000      1.0000000000
 F 2 
   1       3.1309344000     -1.0825667766
   2       1.0419780000      0.1809223232
 F 1 
   1       0.3559044000      1.0000000000
 G 1 
   1       8.7130110000      1.0000000000
 G 1 
   1       2.7493872000      1.0000000000
 G 1 
   1       0.8775089000      1.0000000000
  end;



           ************************************************************
           *        Program running with 4 parallel MPI-processes     *
           *              working on a common directory               *
           ************************************************************
------------------------------------------------------------------------------
                           ORCA GTO INTEGRAL CALCULATION
                           -- RI-GTO INTEGRALS CHOSEN --
------------------------------------------------------------------------------
------------------------------------------------------------------------------
                   ___                                                        
                  /   \      - P O W E R E D   B Y -                         
                 /     \                                                     
                 |  |  |   _    _      __       _____    __    __             
                 |  |  |  | |  | |    /  \     |  _  \  |  |  /  |          
                  \  \/   | |  | |   /    \    | | | |  |  | /  /          
                 / \  \   | |__| |  /  /\  \   | |_| |  |  |/  /          
                |  |  |   |  __  | /  /__\  \  |    /   |      \           
                |  |  |   | |  | | |   __   |  |    \   |  |\   \          
                \     /   | |  | | |  |  |  |  | |\  \  |  | \   \       
                 \___/    |_|  |_| |__|  |__|  |_| \__\ |__|  \__/        
                                                                              
                      - O R C A' S   B I G   F R I E N D -                    
                                      &                                       
                       - I N T E G R A L  F E E D E R -                       
                                                                              
 v1 FN, 2020, v2 2021                                                         
------------------------------------------------------------------------------


Reading SHARK input file input_16.SHARKINP.tmp ... ok
----------------------
SHARK INTEGRAL PACKAGE
----------------------

Number of atoms                             ...     24
Number of basis functions                   ...    353
Number of shells                            ...    179
Maximum angular momentum                    ...      3
Integral batch strategy                     ... SHARK/LIBINT Hybrid
RI-J (if used) integral strategy            ... SPLIT-RIJ (Revised 2003 algorithm where possible)
Printlevel                                  ...      1
Contraction scheme used                     ... SEGMENTED contraction
Coulomb Range Separation                    ... NOT USED
Exchange Range Separation                   ... NOT USED
Finite Nucleus Model                        ... NOT USED
Auxiliary Coulomb fitting basis             ... AVAILABLE
   # of basis functions in Aux-J            ...    768
   # of shells in Aux-J                     ...    256
   Maximum angular momentum in Aux-J        ...      4
Auxiliary J/K fitting basis                 ... NOT available
Auxiliary Correlation fitting basis         ... NOT available
Auxiliary 'external' fitting basis          ... NOT available
Integral threshold                          ...     1.000000e-10
Primitive cut-off                           ...     1.000000e-11
Primitive pair pre-selection threshold      ...     1.000000e-11

Calculating pre-screening integrals         ... done (  0.0 sec) Dimension = 179
Organizing shell pair data                  ... done (  0.1 sec)
Shell pair information
Total number of shell pairs                 ...     16110
Shell pairs after pre-screening             ...     11530
Total number of primitive shell pairs       ...     54315
Primitive shell pairs kept                  ...     25552
          la=0 lb=0:   3948 shell pairs
          la=1 lb=0:   4413 shell pairs
          la=1 lb=1:   1266 shell pairs
          la=2 lb=0:   1070 shell pairs
          la=2 lb=1:    609 shell pairs
          la=2 lb=2:     85 shell pairs
          la=3 lb=0:     77 shell pairs
          la=3 lb=1:     47 shell pairs
          la=3 lb=2:     14 shell pairs
          la=3 lb=3:      1 shell pairs

Calculating one electron integrals          ... done (  0.0 sec)
Calculating RI/J V-Matrix + Cholesky decomp.... done (  0.0 sec)
Calculating Nuclear repulsion               ... done (  0.0 sec) ENN=   1510.011402760799 Eh

SHARK setup successfully completed in   0.3 seconds

Maximum memory used throughout the entire GTOINT-calculation: 25.5 MB


           ************************************************************
           *        Program running with 4 parallel MPI-processes     *
           *              working on a common directory               *
           ************************************************************
-------------------------------------------------------------------------------
                                 ORCA SCF
-------------------------------------------------------------------------------

------------
SCF SETTINGS
------------
Hamiltonian:
 Density Functional     Method          .... DFT(GTOs)
 Exchange Functional    Exchange        .... B88
   X-Alpha parameter    XAlpha          ....  0.666667
   Becke's b parameter  XBeta           ....  0.004200
 Correlation Functional Correlation     .... LYP
 LDA part of GGA corr.  LDAOpt          .... VWN-5
 Gradients option       PostSCFGGA      .... off
 Hybrid DFT is turned on
   Fraction HF Exchange ScalHFX         ....  0.200000
   Scaling of DF-GGA-X  ScalDFX         ....  0.720000
   Scaling of DF-GGA-C  ScalDFC         ....  0.810000
   Scaling of DF-LDA-C  ScalLDAC        ....  1.000000
   Perturbative correction              ....  0.000000
   Density functional embedding theory  .... OFF
   NL short-range parameter             ....  4.800000
 RI-approximation to the Coulomb term is turned on
   Number of AuxJ basis functions       .... 768
   RIJ-COSX (HFX calculated with COS-X)).... on


General Settings:
 Integral files         IntName         .... input_16
 Hartree-Fock type      HFTyp           .... UHF
 Total Charge           Charge          ....   -2
 Multiplicity           Mult            ....    2
 Number of Electrons    NEL             ....  145
 Basis Dimension        Dim             ....  353
 Nuclear Repulsion      ENuc            ....   1510.0114027608 Eh

Convergence Acceleration:
 DIIS                   CNVDIIS         .... on
   Start iteration      DIISMaxIt       ....    12
   Startup error        DIISStart       ....  0.200000
   # of expansion vecs  DIISMaxEq       ....     5
   Bias factor          DIISBfac        ....   1.050
   Max. coefficient     DIISMaxC        ....  10.000
 Trust-Rad. Augm. Hess. CNVTRAH         .... auto
   Auto Start mean grad. ratio tolernc. ....  1.125000
   Auto Start start iteration           ....    20
   Auto Start num. interpolation iter.  ....    10
   Max. Number of Micro iterations      ....    16
   Max. Number of Macro iterations      .... Maxiter - #DIIS iter
   Number of Davidson start vectors     ....     2
   Converg. threshold I  (grad. norm)   ....   5.000e-05
   Converg. threshold II (energy diff.) ....   1.000e-06
   Grad. Scal. Fac. for Micro threshold ....   0.100
   Minimum threshold for Micro iter.    ....   0.010
   NR start threshold (gradient norm)   ....   0.001
   Initial trust radius                 ....   0.400
   Minimum AH scaling param. (alpha)    ....   1.000
   Maximum AH scaling param. (alpha)    .... 1000.000
   Orbital update algorithm             .... Taylor
   White noise on init. David. guess    .... on
   Maximum white noise                  ....   0.010
   Quad. conv. algorithm                .... NR
 SOSCF                  CNVSOSCF        .... off
 Level Shifting         CNVShift        .... on
   Level shift para.    LevelShift      ....    0.2500
   Turn off err/grad.   ShiftErr        ....    0.0010
 Zerner damping         CNVZerner       .... off
 Static damping         CNVDamp         .... on
   Fraction old density DampFac         ....    0.7000
   Max. Damping (<1)    DampMax         ....    0.9800
   Min. Damping (>=0)   DampMin         ....    0.0000
   Turn off err/grad.   DampErr         ....    0.1000
 Fernandez-Rico         CNVRico         .... off

SCF Procedure:
 Maximum # iterations   MaxIter         ....   125
 SCF integral mode      SCFMode         .... Direct
   Integral package                     .... SHARK and LIBINT hybrid scheme
 Reset frequency        DirectResetFreq ....    20
 Integral Threshold     Thresh          ....  1.000e-10 Eh
 Primitive CutOff       TCut            ....  1.000e-11 Eh

Convergence Tolerance:
 Convergence Check Mode ConvCheckMode   .... Total+1el-Energy
 Convergence forced     ConvForced      .... 0
 Energy Change          TolE            ....  1.000e-06 Eh
 1-El. energy change                    ....  1.000e-03 Eh
 DIIS Error             TolErr          ....  1.000e-06


Diagonalization of the overlap matrix:
Smallest eigenvalue                        ... 2.988e-04
Time for diagonalization                   ...    0.050 sec
Threshold for overlap eigenvalues          ... 1.000e-08
Number of eigenvalues below threshold      ... 0
Time for construction of square roots      ...    0.045 sec
Total time needed                          ...    0.096 sec

Time for model grid setup =    0.227 sec

------------------------------
INITIAL GUESS: MODEL POTENTIAL
------------------------------
Loading Hartree-Fock densities                     ... done
Calculating cut-offs                               ... done
Initializing the effective Hamiltonian             ... done
Setting up the integral package (SHARK)            ... done
Starting the Coulomb interaction                   ... done (   0.2 sec)
Reading the grid                                   ... done
Mapping shells                                     ... done
Starting the XC term evaluation                    ... done (   0.1 sec)
  promolecular density results
     # of electrons  =    142.994258669
     EX              =   -186.820052943
     EC              =     -5.510665347
     EX+EC           =   -192.330718289
Transforming the Hamiltonian                       ... done (   0.0 sec)
Diagonalizing the Hamiltonian                      ... done (   0.0 sec)
Back transforming the eigenvectors                 ... done (   0.0 sec)
Now organizing SCF variables                       ... done
                      ------------------
                      INITIAL GUESS DONE (   0.6 sec)
                      ------------------
-------------------
DFT GRID GENERATION
-------------------

General Integration Accuracy     IntAcc      ... 4.388
Radial Grid Type                 RadialGrid  ... OptM3 with GC (2021)
Angular Grid (max. ang.)         AngularGrid ... 4 (Lebedev-302)
Angular grid pruning method      GridPruning ... 4 (adaptive)
Weight generation scheme         WeightScheme... Becke
Basis function cutoff            BFCut       ... 1.0000e-10
Integration weight cutoff        WCut        ... 1.0000e-14
Angular grids for H and He will be reduced by one unit
Partially contracted basis set               ... off
Rotationally invariant grid construction     ... off

Total number of grid points                  ...   131203
Total number of batches                      ...     2062
Average number of points per batch           ...       63
Average number of grid points per atom       ...     5467
Time for grid setup =    1.055 sec

--------------------
COSX GRID GENERATION
--------------------

GRIDX 1
-------
General Integration Accuracy     IntAcc      ... 3.816
Radial Grid Type                 RadialGrid  ... OptM3 with GC (2021)
Angular Grid (max. ang.)         AngularGrid ... 1 (Lebedev-50)
Angular grid pruning method      GridPruning ... 4 (adaptive)
Weight generation scheme         WeightScheme... Becke
Basis function cutoff            BFCut       ... 1.0000e-10
Integration weight cutoff        WCut        ... 1.0000e-14
Angular grids for H and He will be reduced by one unit
Partially contracted basis set               ... on
Rotationally invariant grid construction     ... off

Total number of grid points                  ...    16466
Total number of batches                      ...      270
Average number of points per batch           ...       60
Average number of grid points per atom       ...      686
UseSFitting                                  ... on

GRIDX 2
-------
General Integration Accuracy     IntAcc      ... 4.020
Radial Grid Type                 RadialGrid  ... OptM3 with GC (2021)
Angular Grid (max. ang.)         AngularGrid ... 2 (Lebedev-110)
Angular grid pruning method      GridPruning ... 4 (adaptive)
Weight generation scheme         WeightScheme... Becke
Basis function cutoff            BFCut       ... 1.0000e-10
Integration weight cutoff        WCut        ... 1.0000e-14
Angular grids for H and He will be reduced by one unit
Partially contracted basis set               ... on
Rotationally invariant grid construction     ... off

Total number of grid points                  ...    34475
Total number of batches                      ...      550
Average number of points per batch           ...       62
Average number of grid points per atom       ...     1436
UseSFitting                                  ... on

GRIDX 3
-------
General Integration Accuracy     IntAcc      ... 4.338
Radial Grid Type                 RadialGrid  ... OptM3 with GC (2021)
Angular Grid (max. ang.)         AngularGrid ... 3 (Lebedev-194)
Angular grid pruning method      GridPruning ... 4 (adaptive)
Weight generation scheme         WeightScheme... Becke
Basis function cutoff            BFCut       ... 1.0000e-10
Integration weight cutoff        WCut        ... 1.0000e-14
Angular grids for H and He will be reduced by one unit
Partially contracted basis set               ... on
Rotationally invariant grid construction     ... off

Total number of grid points                  ...    77611
Total number of batches                      ...     1228
Average number of points per batch           ...       63
Average number of grid points per atom       ...     3234
UseSFitting                                  ... on

Time for X-Grid setup             =    1.032 sec

--------------
SCF ITERATIONS
--------------
ITER       Energy         Delta-E        Max-DP      RMS-DP      [F,P]     Damp
               ***  Starting incremental Fock matrix formation  ***
  0  -2847.0863185685   0.000000000000 0.06552323  0.00103611  0.2300071 0.7000
  1  -2847.3063824339  -0.220063865383 0.08204293  0.00100562  0.1557582 0.7000
                               ***Turning on DIIS***
  2  -2847.4499576463  -0.143575212393 0.05483438  0.00062526  0.1089104 0.7000
  3  -2847.5239074512  -0.073949804897 0.08929597  0.00096072  0.0770659 0.0000
  4  -2847.6977852516  -0.173877800387 0.04956258  0.00047718  0.0088831 0.0000
  5  -2847.7030554303  -0.005270178749 0.00957914  0.00012467  0.0079627 0.0000
  6  -2847.7039685345  -0.000913104187 0.00439060  0.00005941  0.0030871 0.0000
  7  -2847.7041789707  -0.000210436204 0.00244297  0.00003187  0.0012751 0.0000
  8  -2847.7042615456  -0.000082574823 0.00198443  0.00002382  0.0010489 0.0000
  9  -2847.7043174444  -0.000055898792 0.00271654  0.00004089  0.0005377 0.0000
               *** Restarting incremental Fock matrix formation ***
                                   *** Resetting DIIS ***
 10  -2847.7043500694  -0.000032625052 0.00073355  0.00001266  0.0003188 0.0000
 11  -2847.7043604717  -0.000010402328 0.00051118  0.00000640  0.0006443 0.0000
 12  -2847.7043635027  -0.000003031015 0.00032680  0.00000518  0.0005469 0.0000
 13  -2847.7043689677  -0.000005464918 0.00048158  0.00000717  0.0004319 0.0000
 14  -2847.7043733034  -0.000004335698 0.00041385  0.00000606  0.0003339 0.0000
 15  -2847.7043753473  -0.000002043946 0.00014007  0.00000207  0.0000791 0.0000
 16  -2847.7043755259  -0.000000178597 0.00012359  0.00000122  0.0000442 0.0000
 17  -2847.7043755426  -0.000000016663 0.00004105  0.00000068  0.0000158 0.0000
 18  -2847.7043755752  -0.000000032658 0.00001603  0.00000026  0.0000127 0.0000
 19  -2847.7043756463  -0.000000071053 0.00001468  0.00000024  0.0000178 0.0000
                 **** Energy Check signals convergence ****

               *****************************************************
               *                     SUCCESS                       *
               *           SCF CONVERGED AFTER  20 CYCLES          *
               *****************************************************

Old exchange energy                            =    -37.592461108 Eh
New exchange energy                            =    -37.592489486 Eh
Exchange energy change after final integration =     -0.000028377 Eh
Total energy after final integration           =  -2847.704403958 Eh
Final COS-X integration done in                =    11.056 sec

----------------
TOTAL SCF ENERGY
----------------

Total Energy       :        -2847.70440396 Eh          -77489.97635 eV

Components:
Nuclear Repulsion  :         1510.01140276 Eh           41089.49922 eV
Electronic Energy  :        -4357.71580672 Eh         -118579.47556 eV
One Electron Energy:        -6970.71193047 Eh         -189682.71491 eV
Two Electron Energy:         2612.99612375 Eh           71103.23935 eV
Max COSX asymmetry :            0.00000377 Eh               0.00010 eV

Virial components:
Potential Energy   :        -5688.36382031 Eh         -154788.24883 eV
Kinetic Energy     :         2840.65941635 Eh           77298.27249 eV
Virial Ratio       :            2.00248005


DFT components:
N(Alpha)           :       72.999950636849 electrons
N(Beta)            :       71.999948507425 electrons
N(Total)           :      144.999899144274 electrons
E(X)               :     -149.488147474199 Eh       
E(C)               :       -6.520374726915 Eh       
E(XC)              :     -156.008522201114 Eh       
DFET-embed. en.    :        0.000000000000 Eh       

---------------
SCF CONVERGENCE
---------------

  Last Energy change         ...    6.5589e-08  Tolerance :   1.0000e-06
  Last MAX-Density change    ...    0.0000e+00  Tolerance :   1.0000e-05
  Last RMS-Density change    ...    0.0000e+00  Tolerance :   1.0000e-06
  Last DIIS Error            ...    1.3379e-05  Tolerance :   1.0000e-06

             **** THE GBW FILE WAS UPDATED (input_16.gbw) ****
             **** DENSITY input_16.scfp WAS UPDATED ****
             **** ENERGY FILE WAS UPDATED (input_16.en.tmp) ****
----------------------
UHF SPIN CONTAMINATION
----------------------

Warning: in a DFT calculation there is little theoretical justification to 
         calculate <S**2> as in Hartree-Fock theory. We will do it anyways
         but you should keep in mind that the values have only limited relevance

Expectation value of <S**2>     :     0.767145
Ideal value S*(S+1) for S=0.5   :     0.750000
Deviation                       :     0.017145

             **** THE GBW FILE WAS UPDATED (input_16.gbw) ****
             **** DENSITY input_16.scfp WAS UPDATED ****
----------------
ORBITAL ENERGIES
----------------
                 SPIN UP ORBITALS
  NO   OCC          E(Eh)            E(eV) 
   0   1.0000    -196.611719     -5350.0769 
   1   1.0000     -88.567517     -2410.0447 
   2   1.0000     -88.562954     -2409.9205 
   3   1.0000     -88.562284     -2409.9023 
   4   1.0000     -88.553371     -2409.6597 
   5   1.0000     -21.986612      -598.2861 
   6   1.0000     -18.827342      -512.3180 
   7   1.0000     -18.494477      -503.2603 
   8   1.0000     -18.487243      -503.0635 
   9   1.0000     -18.487097      -503.0595 
  10   1.0000      -9.942426      -270.5472 
  11   1.0000      -9.941071      -270.5103 
  12   1.0000      -9.940933      -270.5065 
  13   1.0000      -9.937272      -270.4069 
  14   1.0000      -9.935245      -270.3518 
  15   1.0000      -9.933137      -270.2944 
  16   1.0000      -7.620298      -207.3588 
  17   1.0000      -7.618358      -207.3061 
  18   1.0000      -7.615462      -207.2272 
  19   1.0000      -7.607459      -207.0095 
  20   1.0000      -5.585879      -151.9995 
  21   1.0000      -5.583531      -151.9356 
  22   1.0000      -5.580761      -151.8602 
  23   1.0000      -5.579215      -151.8181 
  24   1.0000      -5.577450      -151.7701 
  25   1.0000      -5.577344      -151.7672 
  26   1.0000      -5.575527      -151.7178 
  27   1.0000      -5.574677      -151.6947 
  28   1.0000      -5.572942      -151.6474 
  29   1.0000      -5.572543      -151.6366 
  30   1.0000      -5.566663      -151.4766 
  31   1.0000      -5.564189      -151.4093 
  32   1.0000      -2.378873       -64.7324 
  33   1.0000      -1.420685       -38.6588 
  34   1.0000      -1.406986       -38.2860 
  35   1.0000      -1.406566       -38.2746 
  36   1.0000      -0.589102       -16.0303 
  37   1.0000      -0.553581       -15.0637 
  38   1.0000      -0.542578       -14.7643 
  39   1.0000      -0.467368       -12.7177 
  40   1.0000      -0.465501       -12.6669 
  41   1.0000      -0.405300       -11.0288 
  42   1.0000      -0.395946       -10.7742 
  43   1.0000      -0.340897        -9.2763 
  44   1.0000      -0.329011        -8.9528 
  45   1.0000      -0.296633        -8.0718 
  46   1.0000      -0.286065        -7.7842 
  47   1.0000      -0.216117        -5.8808 
  48   1.0000      -0.205111        -5.5813 
  49   1.0000      -0.203567        -5.5393 
  50   1.0000      -0.193813        -5.2739 
  51   1.0000      -0.154789        -4.2120 
  52   1.0000      -0.135949        -3.6994 
  53   1.0000      -0.133897        -3.6435 
  54   1.0000      -0.112828        -3.0702 
  55   1.0000      -0.109359        -2.9758 
  56   1.0000      -0.104272        -2.8374 
  57   1.0000      -0.076992        -2.0951 
  58   1.0000      -0.070762        -1.9255 
  59   1.0000      -0.064708        -1.7608 
  60   1.0000      -0.055139        -1.5004 
  61   1.0000      -0.045716        -1.2440 
  62   1.0000      -0.043905        -1.1947 
  63   1.0000      -0.037049        -1.0082 
  64   1.0000       0.000892         0.0243 
  65   1.0000       0.023041         0.6270 
  66   1.0000       0.031486         0.8568 
  67   1.0000       0.034994         0.9522 
  68   1.0000       0.043904         1.1947 
  69   1.0000       0.052987         1.4418 
  70   1.0000       0.063398         1.7251 
  71   1.0000       0.074048         2.0149 
  72   1.0000       0.081488         2.2174 
  73   0.0000       0.228741         6.2244 
  74   0.0000       0.240650         6.5484 
  75   0.0000       0.244444         6.6517 
  76   0.0000       0.251269         6.8374 
  77   0.0000       0.256181         6.9710 
  78   0.0000       0.258039         7.0216 
  79   0.0000       0.277244         7.5442 
  80   0.0000       0.285129         7.7587 
  81   0.0000       0.291733         7.9385 
  82   0.0000       0.295399         8.0382 
  83   0.0000       0.298106         8.1119 
  84   0.0000       0.300104         8.1662 
  85   0.0000       0.313722         8.5368 
  86   0.0000       0.315554         8.5866 
  87   0.0000       0.324844         8.8395 
  88   0.0000       0.329920         8.9776 
  89   0.0000       0.333371         9.0715 
  90   0.0000       0.350015         9.5244 
  91   0.0000       0.352146         9.5824 
  92   0.0000       0.363431         9.8895 
  93   0.0000       0.372139        10.1264 
  94   0.0000       0.377136        10.2624 
  95   0.0000       0.399859        10.8807 
  96   0.0000       0.405758        11.0412 
  97   0.0000       0.413571        11.2538 
  98   0.0000       0.426972        11.6185 
  99   0.0000       0.430933        11.7263 
 100   0.0000       0.436022        11.8648 
 101   0.0000       0.446903        12.1608 
 102   0.0000       0.450427        12.2568 
 103   0.0000       0.459813        12.5122 
 104   0.0000       0.462269        12.5790 
 105   0.0000       0.469744        12.7824 
 106   0.0000       0.479581        13.0501 
 107   0.0000       0.481518        13.1028 
 108   0.0000       0.493794        13.4368 
 109   0.0000       0.504800        13.7363 
 110   0.0000       0.516573        14.0567 
 111   0.0000       0.522750        14.2248 
 112   0.0000       0.535218        14.5640 
 113   0.0000       0.542959        14.7747 
 114   0.0000       0.548181        14.9168 
 115   0.0000       0.556410        15.1407 
 116   0.0000       0.571860        15.5611 
 117   0.0000       0.581815        15.8320 
 118   0.0000       0.587948        15.9989 
 119   0.0000       0.592962        16.1353 
 120   0.0000       0.598298        16.2805 
 121   0.0000       0.609632        16.5889 
 122   0.0000       0.619141        16.8477 
 123   0.0000       0.626588        17.0503 
 124   0.0000       0.629010        17.1162 
 125   0.0000       0.642111        17.4727 
 126   0.0000       0.644674        17.5425 
 127   0.0000       0.650225        17.6935 
 128   0.0000       0.653843        17.7920 
 129   0.0000       0.656662        17.8687 
 130   0.0000       0.665612        18.1122 
 131   0.0000       0.671143        18.2627 
 132   0.0000       0.674102        18.3432 
 133   0.0000       0.679184        18.4815 
 134   0.0000       0.680138        18.5075 
 135   0.0000       0.685429        18.6515 
 136   0.0000       0.693082        18.8597 
 137   0.0000       0.701602        19.0916 
 138   0.0000       0.710123        19.3234 
 139   0.0000       0.714396        19.4397 
 140   0.0000       0.719378        19.5753 
 141   0.0000       0.724595        19.7172 
 142   0.0000       0.737185        20.0598 
 143   0.0000       0.743653        20.2358 
 144   0.0000       0.750049        20.4099 
 145   0.0000       0.759735        20.6734 
 146   0.0000       0.775846        21.1118 
 147   0.0000       0.795691        21.6519 
 148   0.0000       0.809256        22.0210 
 149   0.0000       0.818739        22.2790 
 150   0.0000       0.826892        22.5009 
 151   0.0000       0.831112        22.6157 
 152   0.0000       0.861446        23.4411 
 153   0.0000       0.875471        23.8228 
 154   0.0000       0.892200        24.2780 
 155   0.0000       0.904403        24.6101 
 156   0.0000       0.924902        25.1679 
 157   0.0000       0.952974        25.9317 
 158   0.0000       0.977940        26.6111 
 159   0.0000       0.988747        26.9052 
 160   0.0000       0.995380        27.0857 
 161   0.0000       1.005336        27.3566 
 162   0.0000       1.021291        27.7907 
 163   0.0000       1.028267        27.9806 
 164   0.0000       1.041884        28.3511 
 165   0.0000       1.047827        28.5128 
 166   0.0000       1.070773        29.1372 
 167   0.0000       1.081531        29.4299 
 168   0.0000       1.094564        29.7846 
 169   0.0000       1.102476        29.9999 
 170   0.0000       1.114818        30.3357 
 171   0.0000       1.135008        30.8851 
 172   0.0000       1.144564        31.1452 
 173   0.0000       1.159524        31.5523 
 174   0.0000       1.176070        32.0025 
 175   0.0000       1.201608        32.6974 
 176   0.0000       1.241448        33.7815 
 177   0.0000       1.279662        34.8214 
 178   0.0000       1.281810        34.8798 
 179   0.0000       1.296322        35.2747 
 180   0.0000       1.311008        35.6743 
 181   0.0000       1.347933        36.6791 
 182   0.0000       1.365290        37.1514 
 183   0.0000       1.376521        37.4570 
 184   0.0000       1.419421        38.6244 
 185   0.0000       1.431500        38.9531 
 186   0.0000       1.438830        39.1525 
 187   0.0000       1.441208        39.2173 
 188   0.0000       1.454186        39.5704 
 189   0.0000       1.515830        41.2478 
 190   0.0000       1.527439        41.5637 
 191   0.0000       1.533839        41.7379 
 192   0.0000       1.549848        42.1735 
 193   0.0000       1.556410        42.3521 
 194   0.0000       1.565153        42.5900 
 195   0.0000       1.567884        42.6643 
 196   0.0000       1.576898        42.9096 
 197   0.0000       1.587275        43.1919 
 198   0.0000       1.621759        44.1303 
 199   0.0000       1.625951        44.2444 
 200   0.0000       1.632761        44.4297 
 201   0.0000       1.636186        44.5229 
 202   0.0000       1.653894        45.0047 
 203   0.0000       1.666878        45.3581 
 204   0.0000       1.684806        45.8459 
 205   0.0000       1.689240        45.9666 
 206   0.0000       1.702296        46.3218 
 207   0.0000       1.706991        46.4496 
 208   0.0000       1.711353        46.5683 
 209   0.0000       1.732721        47.1497 
 210   0.0000       1.735626        47.2288 
 211   0.0000       1.746812        47.5332 
 212   0.0000       1.779602        48.4254 
 213   0.0000       1.788563        48.6693 
 214   0.0000       1.797795        48.9205 
 215   0.0000       1.829575        49.7853 
 216   0.0000       1.842493        50.1368 
 217   0.0000       1.861083        50.6427 
 218   0.0000       1.878553        51.1180 
 219   0.0000       1.910353        51.9833 
 220   0.0000       1.917530        52.1786 
 221   0.0000       1.923305        52.3358 
 222   0.0000       1.936186        52.6863 
 223   0.0000       1.940664        52.8082 
 224   0.0000       1.984086        53.9897 
 225   0.0000       1.999637        54.4129 
 226   0.0000       2.005117        54.5620 
 227   0.0000       2.035311        55.3836 
 228   0.0000       2.040609        55.5278 
 229   0.0000       2.044466        55.6327 
 230   0.0000       2.053283        55.8727 
 231   0.0000       2.070218        56.3335 
 232   0.0000       2.085950        56.7616 
 233   0.0000       2.099201        57.1222 
 234   0.0000       2.101558        57.1863 
 235   0.0000       2.122962        57.7687 
 236   0.0000       2.134107        58.0720 
 237   0.0000       2.151181        58.5366 
 238   0.0000       2.156557        58.6829 
 239   0.0000       2.186682        59.5026 
 240   0.0000       2.191930        59.6455 
 241   0.0000       2.196273        59.7636 
 242   0.0000       2.203142        59.9505 
 243   0.0000       2.210200        60.1426 
 244   0.0000       2.246092        61.1193 
 245   0.0000       2.264989        61.6335 
 246   0.0000       2.278625        62.0045 
 247   0.0000       2.289613        62.3035 
 248   0.0000       2.306057        62.7510 
 249   0.0000       2.318676        63.0944 
 250   0.0000       2.337063        63.5947 
 251   0.0000       2.372186        64.5505 
 252   0.0000       2.377983        64.7082 
 253   0.0000       2.389938        65.0335 
 254   0.0000       2.411619        65.6235 
 255   0.0000       2.421972        65.9052 
 256   0.0000       2.446450        66.5713 
 257   0.0000       2.496102        67.9224 
 258   0.0000       2.498727        67.9938 
 259   0.0000       2.514541        68.4241 
 260   0.0000       2.544150        69.2299 
 261   0.0000       2.556364        69.5622 
 262   0.0000       2.570192        69.9385 
 263   0.0000       2.588350        70.4326 
 264   0.0000       2.604638        70.8758 
 265   0.0000       2.623757        71.3961 
 266   0.0000       2.626085        71.4594 
 267   0.0000       2.662669        72.4549 
 268   0.0000       2.674985        72.7900 
 269   0.0000       2.694789        73.3289 
 270   0.0000       2.721419        74.0536 
 271   0.0000       2.753453        74.9253 
 272   0.0000       2.775841        75.5345 
 273   0.0000       2.777882        75.5900 
 274   0.0000       2.792139        75.9780 
 275   0.0000       2.826245        76.9060 
 276   0.0000       2.832812        77.0847 
 277   0.0000       2.843268        77.3693 
 278   0.0000       2.875274        78.2402 
 279   0.0000       2.882228        78.4294 
 280   0.0000       2.886801        78.5538 
 281   0.0000       2.895195        78.7823 
 282   0.0000       2.908872        79.1544 
 283   0.0000       2.929072        79.7041 
 284   0.0000       2.938979        79.9737 
 285   0.0000       2.943536        80.0977 
 286   0.0000       2.945409        80.1487 
 287   0.0000       2.967070        80.7381 
 288   0.0000       2.972065        80.8740 
 289   0.0000       2.986631        81.2704 
 290   0.0000       3.013273        81.9953 
 291   0.0000       3.021894        82.2299 
 292   0.0000       3.044360        82.8413 
 293   0.0000       3.050941        83.0203 
 294   0.0000       3.073029        83.6214 
 295   0.0000       3.096111        84.2495 
 296   0.0000       3.134937        85.3060 
 297   0.0000       3.231158        87.9243 
 298   0.0000       3.271116        89.0116 
 299   0.0000       3.357099        91.3513 
 300   0.0000       3.393629        92.3453 
 301   0.0000       3.436410        93.5095 
 302   0.0000       3.472712        94.4973 
 303   0.0000       3.533100        96.1405 
 304   0.0000       3.548001        96.5460 
 305   0.0000       3.566250        97.0426 
 306   0.0000       3.579112        97.3926 
 307   0.0000       3.600548        97.9759 
 308   0.0000       3.602674        98.0337 
 309   0.0000       3.626977        98.6951 
 310   0.0000       3.651195        99.3541 
 311   0.0000       3.659806        99.5884 
 312   0.0000       3.678640       100.1009 
 313   0.0000       3.856053       104.9285 
 314   0.0000       3.883408       105.6729 
 315   0.0000       3.909835       106.3920 
 316   0.0000       4.030405       109.6729 
 317   0.0000       4.255623       115.8014 
 318   0.0000       4.573258       124.4447 
 319   0.0000       4.588236       124.8522 
 320   0.0000       4.590859       124.9236 
 321   0.0000       4.615341       125.5898 
 322   0.0000       4.639824       126.2560 
 323   0.0000       4.641720       126.3076 
 324   0.0000       5.190572       141.2426 
 325   0.0000       7.031004       191.3234 
 326   0.0000       7.094797       193.0592 
 327   0.0000       7.156243       194.7313 
 328   0.0000      18.820172       512.1229 
 329   0.0000      18.838178       512.6129 
 330   0.0000      19.006605       517.1960 
 331   0.0000      19.055575       518.5285 
 332   0.0000      19.821073       539.3588 
 333   0.0000      22.181374       603.5859 
 334   0.0000      22.188726       603.7859 
 335   0.0000      22.199732       604.0854 
 336   0.0000      22.262092       605.7823 
 337   0.0000      22.296098       606.7077 
 338   0.0000      22.353882       608.2800 
 339   0.0000      43.692591      1188.9358 
 340   0.0000     128.755003      3503.6018 
 341   0.0000     158.418015      4310.7734 
 342   0.0000     158.469552      4312.1757 
 343   0.0000     158.508202      4313.2274 
 344   0.0000     555.910728     15127.1000 
 345   0.0000    1893.311035     51519.6125 
 346   0.0000    6235.819491    169685.2750 
 347   0.0000   22016.245848    599092.5068 
 348   0.0000   90690.794862   2467821.9898 
 349   0.0000   462517.534384   12585741.9573 
 350   0.0000   1711386.089747   46569183.0335 
 351   0.0000   5079093.293944   138209154.9459 
 352   0.0000   14523636.809862   395208249.5955 

                 SPIN DOWN ORBITALS
  NO   OCC          E(Eh)            E(eV) 
   0   1.0000    -196.611861     -5350.0807 
   1   1.0000     -88.567684     -2410.0492 
   2   1.0000     -88.562887     -2409.9187 
   3   1.0000     -88.562461     -2409.9071 
   4   1.0000     -88.553496     -2409.6631 
   5   1.0000     -21.971339      -597.8705 
   6   1.0000     -18.830945      -512.4161 
   7   1.0000     -18.489144      -503.1152 
   8   1.0000     -18.470941      -502.6199 
   9   1.0000     -18.470441      -502.6063 
  10   1.0000      -9.942312      -270.5441 
  11   1.0000      -9.940985      -270.5080 
  12   1.0000      -9.940833      -270.5038 
  13   1.0000      -9.937294      -270.4075 
  14   1.0000      -9.935197      -270.3504 
  15   1.0000      -9.933016      -270.2911 
  16   1.0000      -7.620462      -207.3633 
  17   1.0000      -7.618294      -207.3043 
  18   1.0000      -7.615630      -207.2318 
  19   1.0000      -7.607577      -207.0127 
  20   1.0000      -5.586022      -152.0034 
  21   1.0000      -5.583536      -151.9357 
  22   1.0000      -5.580900      -151.8640 
  23   1.0000      -5.579672      -151.8306 
  24   1.0000      -5.577629      -151.7750 
  25   1.0000      -5.577555      -151.7730 
  26   1.0000      -5.575172      -151.7081 
  27   1.0000      -5.574946      -151.7020 
  28   1.0000      -5.573061      -151.6507 
  29   1.0000      -5.572677      -151.6402 
  30   1.0000      -5.567141      -151.4896 
  31   1.0000      -5.564138      -151.4079 
  32   1.0000      -2.333337       -63.4933 
  33   1.0000      -1.401191       -38.1283 
  34   1.0000      -1.344554       -36.5872 
  35   1.0000      -1.343054       -36.5463 
  36   1.0000      -0.596926       -16.2432 
  37   1.0000      -0.553393       -15.0586 
  38   1.0000      -0.542549       -14.7635 
  39   1.0000      -0.467256       -12.7147 
  40   1.0000      -0.465514       -12.6673 
  41   1.0000      -0.405280       -11.0282 
  42   1.0000      -0.396208       -10.7814 
  43   1.0000      -0.341021        -9.2797 
  44   1.0000      -0.329477        -8.9655 
  45   1.0000      -0.296671        -8.0728 
  46   1.0000      -0.286168        -7.7870 
  47   1.0000      -0.216046        -5.8789 
  48   1.0000      -0.204931        -5.5764 
  49   1.0000      -0.203520        -5.5381 
  50   1.0000      -0.193749        -5.2722 
  51   1.0000      -0.154691        -4.2094 
  52   1.0000      -0.135778        -3.6947 
  53   1.0000      -0.133653        -3.6369 
  54   1.0000      -0.112833        -3.0703 
  55   1.0000      -0.109287        -2.9738 
  56   1.0000      -0.104140        -2.8338 
  57   1.0000      -0.075846        -2.0639 
  58   1.0000      -0.069065        -1.8794 
  59   1.0000      -0.064141        -1.7454 
  60   1.0000      -0.054596        -1.4856 
  61   1.0000      -0.047610        -1.2955 
  62   1.0000      -0.045147        -1.2285 
  63   1.0000      -0.037523        -1.0210 
  64   1.0000       0.004466         0.1215 
  65   1.0000       0.024826         0.6755 
  66   1.0000       0.035548         0.9673 
  67   1.0000       0.042590         1.1589 
  68   1.0000       0.050242         1.3672 
  69   1.0000       0.059414         1.6167 
  70   1.0000       0.064605         1.7580 
  71   1.0000       0.077309         2.1037 
  72   0.0000       0.234838         6.3903 
  73   0.0000       0.245737         6.6868 
  74   0.0000       0.254050         6.9130 
  75   0.0000       0.257157         6.9976 
  76   0.0000       0.259896         7.0721 
  77   0.0000       0.262432         7.1411 
  78   0.0000       0.270453         7.3594 
  79   0.0000       0.279604         7.6084 
  80   0.0000       0.285644         7.7728 
  81   0.0000       0.292320         7.9544 
  82   0.0000       0.295821         8.0497 
  83   0.0000       0.299267         8.1435 
  84   0.0000       0.300503         8.1771 
  85   0.0000       0.314360         8.5542 
  86   0.0000       0.318692         8.6721 
  87   0.0000       0.325760         8.8644 
  88   0.0000       0.330584         8.9957 
  89   0.0000       0.334023         9.0892 
  90   0.0000       0.350632         9.5412 
  91   0.0000       0.352552         9.5934 
  92   0.0000       0.363755         9.8983 
  93   0.0000       0.372637        10.1400 
  94   0.0000       0.377853        10.2819 
  95   0.0000       0.402391        10.9496 
  96   0.0000       0.406294        11.0558 
  97   0.0000       0.415213        11.2985 
  98   0.0000       0.427717        11.6388 
  99   0.0000       0.431115        11.7312 
 100   0.0000       0.436572        11.8797 
 101   0.0000       0.448020        12.1912 
 102   0.0000       0.451346        12.2817 
 103   0.0000       0.460264        12.5244 
 104   0.0000       0.462959        12.5978 
 105   0.0000       0.471329        12.8255 
 106   0.0000       0.480106        13.0643 
 107   0.0000       0.482747        13.1362 
 108   0.0000       0.494556        13.4576 
 109   0.0000       0.507111        13.7992 
 110   0.0000       0.518058        14.0971 
 111   0.0000       0.527246        14.3471 
 112   0.0000       0.536382        14.5957 
 113   0.0000       0.543791        14.7973 
 114   0.0000       0.551852        15.0167 
 115   0.0000       0.557734        15.1767 
 116   0.0000       0.571881        15.5617 
 117   0.0000       0.582329        15.8460 
 118   0.0000       0.588489        16.0136 
 119   0.0000       0.594288        16.1714 
 120   0.0000       0.599464        16.3122 
 121   0.0000       0.611027        16.6269 
 122   0.0000       0.619584        16.8597 
 123   0.0000       0.628012        17.0891 
 124   0.0000       0.629620        17.1328 
 125   0.0000       0.642538        17.4844 
 126   0.0000       0.645169        17.5559 
 127   0.0000       0.650572        17.7030 
 128   0.0000       0.654349        17.8057 
 129   0.0000       0.657274        17.8853 
 130   0.0000       0.666017        18.1232 
 131   0.0000       0.671415        18.2701 
 132   0.0000       0.674386        18.3510 
 133   0.0000       0.679323        18.4853 
 134   0.0000       0.680511        18.5176 
 135   0.0000       0.686102        18.6698 
 136   0.0000       0.693543        18.8723 
 137   0.0000       0.703184        19.1346 
 138   0.0000       0.710579        19.3358 
 139   0.0000       0.715011        19.4564 
 140   0.0000       0.719687        19.5837 
 141   0.0000       0.724859        19.7244 
 142   0.0000       0.737424        20.0663 
 143   0.0000       0.743737        20.2381 
 144   0.0000       0.750267        20.4158 
 145   0.0000       0.760801        20.7024 
 146   0.0000       0.776060        21.1177 
 147   0.0000       0.796877        21.6841 
 148   0.0000       0.811375        22.0786 
 149   0.0000       0.820542        22.3281 
 150   0.0000       0.826885        22.5007 
 151   0.0000       0.831108        22.6156 
 152   0.0000       0.861630        23.4462 
 153   0.0000       0.875100        23.8127 
 154   0.0000       0.894749        24.3473 
 155   0.0000       0.906743        24.6737 
 156   0.0000       0.925122        25.1739 
 157   0.0000       0.953986        25.9593 
 158   0.0000       0.978907        26.6374 
 159   0.0000       0.988835        26.9076 
 160   0.0000       0.996244        27.1092 
 161   0.0000       1.007379        27.4122 
 162   0.0000       1.021463        27.7954 
 163   0.0000       1.028862        27.9967 
 164   0.0000       1.042492        28.3677 
 165   0.0000       1.047575        28.5060 
 166   0.0000       1.071829        29.1660 
 167   0.0000       1.082660        29.4607 
 168   0.0000       1.095172        29.8012 
 169   0.0000       1.102944        30.0126 
 170   0.0000       1.115105        30.3436 
 171   0.0000       1.137947        30.9651 
 172   0.0000       1.147645        31.2290 
 173   0.0000       1.162200        31.6251 
 174   0.0000       1.179448        32.0944 
 175   0.0000       1.202689        32.7268 
 176   0.0000       1.262647        34.3584 
 177   0.0000       1.280393        34.8413 
 178   0.0000       1.282769        34.9059 
 179   0.0000       1.298094        35.3229 
 180   0.0000       1.314350        35.7653 
 181   0.0000       1.349835        36.7309 
 182   0.0000       1.368546        37.2400 
 183   0.0000       1.385209        37.6934 
 184   0.0000       1.422756        38.7152 
 185   0.0000       1.432188        38.9718 
 186   0.0000       1.439596        39.1734 
 187   0.0000       1.443782        39.2873 
 188   0.0000       1.456156        39.6240 
 189   0.0000       1.518143        41.3108 
 190   0.0000       1.527535        41.5663 
 191   0.0000       1.534661        41.7602 
 192   0.0000       1.550181        42.1826 
 193   0.0000       1.556569        42.3564 
 194   0.0000       1.565336        42.5950 
 195   0.0000       1.568307        42.6758 
 196   0.0000       1.577251        42.9192 
 197   0.0000       1.587657        43.2023 
 198   0.0000       1.621968        44.1360 
 199   0.0000       1.626692        44.2646 
 200   0.0000       1.633168        44.4408 
 201   0.0000       1.636420        44.5293 
 202   0.0000       1.654345        45.0170 
 203   0.0000       1.667621        45.3783 
 204   0.0000       1.685426        45.8628 
 205   0.0000       1.690469        46.0000 
 206   0.0000       1.703665        46.3591 
 207   0.0000       1.709856        46.5276 
 208   0.0000       1.714142        46.6442 
 209   0.0000       1.735204        47.2173 
 210   0.0000       1.742169        47.4068 
 211   0.0000       1.752397        47.6851 
 212   0.0000       1.781066        48.4653 
 213   0.0000       1.793294        48.7980 
[...]
Memory needed per perturbation ...  15.7 MB
Perturbations treated per batch... 3
Number of batches              ... 1
     CP-SCF ITERATION   0:   4.5035e-02 (   2.5 sec   0/  3 done)
     CP-SCF ITERATION   1:   3.3707e-03 (   2.6 sec   0/  3 done)
     CP-SCF ITERATION   2:   1.0887e-03 (   2.6 sec   1/  3 done)
     CP-SCF ITERATION   3:   1.6809e-04 (   2.1 sec   3/  3 done)
                    *** THE CP-SCF HAS CONVERGED ***

Forming final perturbed densities           ... done
Transforming perturbed density to AO basis  ... done

 Raw HFC matrix (all values in MHz): 
 -----------------------------------
                -1.1196              -0.0888              -1.7036
                -0.0867              -2.8672              -0.0201
                -1.7134              -0.0270              -1.0595

 A(FC)          -1.6839              -1.6839              -1.6839
 A(SD)           2.3176              -1.0709              -1.2468
 A(ORB+DIA)     -0.0140               0.0082               0.0113    A(PC) =   0.0018
 A(ORB)         -0.0144               0.0085               0.0115    A(PC) =   0.0018
 A(DIA)          0.0005              -0.0003              -0.0002    A(PC) =   0.0000
             ----------           ----------           ----------
 A(Tot)          0.6197              -2.7467              -2.9194    A(iso)=   -1.6821
 Orientation: 
  X          -0.7010689            0.5938302            0.3948013
  Y           0.0151713           -0.5410996            0.8408216
  Z           0.7129321            0.5954636            0.3703390

Notes:  (1) The A matrix conforms to the "SAI" spin Hamiltonian convention.
        (2) Tensor is right-handed.

 Raw EFG matrix (all values in a.u.**-3):
 -----------------------------------
             0.2459      -0.0426      -0.1256
            -0.0426      -0.1415       0.0122
            -0.1256       0.0122      -0.1044

 V(El)       0.5981       0.7767      -1.3748
 V(Nuc)     -0.7420      -0.9237       1.6657
         ----------   ----------   ----------
 V(Tot)     -0.1439      -0.1470       0.2908 
 Orientation: 
  X      -0.2030382    0.2483872    0.9471427
  Y       0.5437492    0.8330385   -0.1019003
  Z      -0.8143170    0.4943185   -0.3041990

Note: Tensor is right-handed


 Quadrupole tensor eigenvalues (in MHz;Q= 0.0029 I=  1.0)
  e**2qQ            =     0.195300 MHz 
  e**2qQ/(4I*(2I-1))=     0.048825 MHz 
  eta               =     0.010710
  NOTE: the diagonal representation of the SH term I*Q*I = e**2qQ/(4I(2I-1))*[-(1-eta),-(1+eta),2]

 RHO(0)=      0.446403225 a.u.**-3

 -----------------------------------------------------------
 Nucleus  23H : A:ISTP=    1 I=  0.5 P=533.5514 MHz/au**3
                Q:ISTP=    2 I=  1.0 Q=  0.0029 barn     
 -----------------------------------------------------------
 Solving for nuclear perturbation:
Forming RHS of the CP-SCF equations         ... 
Calc. nucleus orbit integrals (SHARK)       ... done

------------------------------------------------------------------------------
                           ORCA CP-SCF CALCULATION
------------------------------------------------------------------------------

Input orbitals are from        ... input_16.gbw
Input Perturbation             ... input_16.pin.tmp
Wavefunction output            ... input_16.pout.tmp
Perturbation mode              ... Imaginary perturbation
Solver                         ... POPLE
Max. number of iterations      ... 64
Convergence tolerance          ... 1.000e-03
Integral handling              ... Direct
DFT GridXC                     ... 1
COSX GridX                     ... 1
COSX IntAccX                   ... 3.067
COSX Algorithm                 ... Auto
Number of perturbations        ... 3
Number of operators            ... 2
Orbital ranges used for CP-SCF:
 Operator 0:  Orbitals   0... 72  to  73...352
 Operator 1:  Orbitals   0... 71  to  72...352
Variables per perturbation     ... 40672
DFT calculation                         ... on
XC functional terms                     ... off
Hybrid DFT                              ... on
   Exchange mixing (SCF)                ...  0.200
   Exchange mixing (CP-SCF)             ...  0.200
   GGA exch. scaling(SCF)               ...  0.720
   GGA exch. scaling (CP-SCF)           ...  0.720
   GGA corr. scaling (SCF)              ...  0.810
   GGA corr. scaling (CP-SCF)           ...  0.810

CP-SCF GRID
-----------

General Integration Accuracy     IntAcc      ... 3.467
Radial Grid Type                 RadialGrid  ... OptM3 with GC (2021)
Angular Grid (max. ang.)         AngularGrid ... 1 (Lebedev-50)
Angular grid pruning method      GridPruning ... 4 (adaptive)
Weight generation scheme         WeightScheme... Becke
Basis function cutoff            BFCut       ... 1.0000e-10
Integration weight cutoff        WCut        ... 1.0000e-14
Angular grids for H and He will be reduced by one unit
Partially contracted basis set               ... off
Rotationally invariant grid construction     ... off

Total number of grid points                  ...    23593
Total number of batches                      ...      379
Average number of points per batch           ...       62
Average number of grid points per atom       ...      983

CP-SCF GRIDX
------------

General Integration Accuracy     IntAcc      ... 3.067
Radial Grid Type                 RadialGrid  ... OptM3 with GC (2021)
Angular Grid (max. ang.)         AngularGrid ... 1 (Lebedev-50)
Angular grid pruning method      GridPruning ... 4 (adaptive)
Weight generation scheme         WeightScheme... Becke
Basis function cutoff            BFCut       ... 1.0000e-10
Integration weight cutoff        WCut        ... 1.0000e-14
Angular grids for H and He will be reduced by one unit
Partially contracted basis set               ... on
Rotationally invariant grid construction     ... off

Total number of grid points                  ...    10204
Total number of batches                      ...      172
Average number of points per batch           ...       59
Average number of grid points per atom       ...      425

Memory available               ... 900.4 MB
Memory needed per perturbation ...  15.7 MB
Perturbations treated per batch... 3
Number of batches              ... 1
     CP-SCF ITERATION   0:   4.5898e-02 (   2.5 sec   0/  3 done)
     CP-SCF ITERATION   1:   7.0931e-03 (   2.6 sec   0/  3 done)
     CP-SCF ITERATION   2:   1.5821e-03 (   2.6 sec   0/  3 done)
     CP-SCF ITERATION   3:   2.6682e-04 (   2.6 sec   3/  3 done)
                    *** THE CP-SCF HAS CONVERGED ***

Forming final perturbed densities           ... done
Transforming perturbed density to AO basis  ... done

 Raw HFC matrix (all values in MHz): 
 -----------------------------------
                -0.6158              -0.5364              -2.4931
                -0.5230              -1.4693               1.4940
                -2.5033               1.5096               2.7223

 A(FC)           0.2086               0.2086               0.2086
 A(SD)          -1.9285              -2.3849               4.3133
 A(ORB+DIA)      0.0360               0.0222              -0.0467    A(PC) =   0.0038
 A(ORB)          0.0360               0.0224              -0.0479    A(PC) =   0.0035
 A(DIA)         -0.0000              -0.0002               0.0012    A(PC) =   0.0003
             ----------           ----------           ----------
 A(Tot)         -1.6839              -2.1541               4.4752    A(iso)=    0.2124
 Orientation: 
  X           0.6740756           -0.5878400           -0.4472876
  Y           0.7260863            0.6385699            0.2550041
  Z           0.1357228           -0.4966615            0.8572670

Notes:  (1) The A matrix conforms to the "SAI" spin Hamiltonian convention.
        (2) Tensor is right-handed.

 Raw EFG matrix (all values in a.u.**-3):
 -----------------------------------
            -0.0581       0.1737       0.0218
             0.1737       0.1949       0.0429
             0.0218       0.0429      -0.1368

 V(El)       0.3983       0.6115      -1.0098
 V(Nuc)     -0.5406      -0.7580       1.2985
         ----------   ----------   ----------
 V(Tot)     -0.1423      -0.1465       0.2887 
 Orientation: 
  X      -0.0538342    0.8910760    0.4506501
  Y      -0.0987727   -0.4538431    0.8855904
  Z       0.9936528    0.0031631    0.1124462

Note: Tensor is right-handed


 Quadrupole tensor eigenvalues (in MHz;Q= 0.0029 I=  1.0)
  e**2qQ            =     0.193879 MHz 
  e**2qQ/(4I*(2I-1))=     0.048470 MHz 
  eta               =     0.014563
  NOTE: the diagonal representation of the SH term I*Q*I = e**2qQ/(4I(2I-1))*[-(1-eta),-(1+eta),2]

 RHO(0)=      0.443430708 a.u.**-3

 -----------------------------------------------------------
 Nucleus   0V : A:ISTP=   51 I=  3.5 P=140.5173 MHz/au**3
                Q:ISTP=   51 I=  3.5 Q= -0.0430 barn     
 -----------------------------------------------------------
 Solving for nuclear perturbation:
Forming RHS of the CP-SCF equations         ... 
Calc. nucleus orbit integrals (SHARK)       ... done

------------------------------------------------------------------------------
                           ORCA CP-SCF CALCULATION
------------------------------------------------------------------------------

Input orbitals are from        ... input_16.gbw
Input Perturbation             ... input_16.pin.tmp
Wavefunction output            ... input_16.pout.tmp
Perturbation mode              ... Imaginary perturbation
Solver                         ... POPLE
Max. number of iterations      ... 64
Convergence tolerance          ... 1.000e-03
Integral handling              ... Direct
DFT GridXC                     ... 1
COSX GridX                     ... 1
COSX IntAccX                   ... 3.067
COSX Algorithm                 ... Auto
Number of perturbations        ... 3
Number of operators            ... 2
Orbital ranges used for CP-SCF:
 Operator 0:  Orbitals   0... 72  to  73...352
 Operator 1:  Orbitals   0... 71  to  72...352
Variables per perturbation     ... 40672
DFT calculation                         ... on
XC functional terms                     ... off
Hybrid DFT                              ... on
   Exchange mixing (SCF)                ...  0.200
   Exchange mixing (CP-SCF)             ...  0.200
   GGA exch. scaling(SCF)               ...  0.720
   GGA exch. scaling (CP-SCF)           ...  0.720
   GGA corr. scaling (SCF)              ...  0.810
   GGA corr. scaling (CP-SCF)           ...  0.810

CP-SCF GRID
-----------

General Integration Accuracy     IntAcc      ... 3.467
Radial Grid Type                 RadialGrid  ... OptM3 with GC (2021)
Angular Grid (max. ang.)         AngularGrid ... 1 (Lebedev-50)
Angular grid pruning method      GridPruning ... 4 (adaptive)
Weight generation scheme         WeightScheme... Becke
Basis function cutoff            BFCut       ... 1.0000e-10
Integration weight cutoff        WCut        ... 1.0000e-14
Angular grids for H and He will be reduced by one unit
Partially contracted basis set               ... off
Rotationally invariant grid construction     ... off

Total number of grid points                  ...    23593
Total number of batches                      ...      379
Average number of points per batch           ...       62
Average number of grid points per atom       ...      983

CP-SCF GRIDX
------------

General Integration Accuracy     IntAcc      ... 3.067
Radial Grid Type                 RadialGrid  ... OptM3 with GC (2021)
Angular Grid (max. ang.)         AngularGrid ... 1 (Lebedev-50)
Angular grid pruning method      GridPruning ... 4 (adaptive)
Weight generation scheme         WeightScheme... Becke
Basis function cutoff            BFCut       ... 1.0000e-10
Integration weight cutoff        WCut        ... 1.0000e-14
Angular grids for H and He will be reduced by one unit
Partially contracted basis set               ... on
Rotationally invariant grid construction     ... off

Total number of grid points                  ...    10204
Total number of batches                      ...      172
Average number of points per batch           ...       59
Average number of grid points per atom       ...      425

Memory available               ... 898.6 MB
Memory needed per perturbation ...  15.7 MB
Perturbations treated per batch... 3
Number of batches              ... 1
     CP-SCF ITERATION   0:   1.2269e+01 (   2.7 sec   0/  3 done)
     CP-SCF ITERATION   1:   3.0188e+00 (   2.5 sec   0/  3 done)
     CP-SCF ITERATION   2:   5.4362e-01 (   2.5 sec   0/  3 done)
     CP-SCF ITERATION   3:   1.7416e-01 (   2.5 sec   0/  3 done)
     CP-SCF ITERATION   4:   3.5243e-02 (   2.5 sec   0/  3 done)
     CP-SCF ITERATION   5:   6.0619e-03 (   2.6 sec   0/  3 done)
     CP-SCF ITERATION   6:   1.5509e-03 (   2.6 sec   1/  3 done)
     CP-SCF ITERATION   7:   3.8407e-04 (   2.1 sec   3/  3 done)
                    *** THE CP-SCF HAS CONVERGED ***

Forming final perturbed densities           ... done
Transforming perturbed density to AO basis  ... done

 Raw HFC matrix (all values in MHz): 
 -----------------------------------
              -103.4534              49.8697              47.4892
                50.1498            -227.1133            -149.9626
                47.3446            -147.3970            -229.2864

 A(FC)        -173.9372            -173.9372            -173.9372
 A(SD)         103.1828              95.3936            -198.5763
 A(ORB+DIA)     -8.3956              -8.9024             -20.7436    A(PC) = -12.6805
 A(ORB)         -8.3958              -8.9023             -20.7437    A(PC) = -12.6806
 A(DIA)          0.0002              -0.0001               0.0001    A(PC) =   0.0001
             ----------           ----------           ----------
 A(Tot)        -79.1500             -87.4460            -393.2571    A(iso)= -186.6177
 Orientation: 
  X           0.1130695            0.9665387            0.2302569
  Y           0.7227666            0.0790063           -0.6865613
  Z          -0.6817798            0.2440511           -0.6896487

Notes:  (1) The A matrix conforms to the "SAI" spin Hamiltonian convention.
        (2) Tensor is right-handed.

 Raw EFG matrix (all values in a.u.**-3):
 -----------------------------------
            -0.2789       0.0204       0.1093
             0.0204       0.1341       0.3548
             0.1093       0.3548       0.1448

 V(El)      -0.1019      -0.4283       0.5302
 V(Nuc)     -0.0787       0.1037      -0.0250
         ----------   ----------   ----------
 V(Tot)     -0.1806      -0.3246       0.5052 
 Orientation: 
  X      -0.4879100    0.8649464   -0.1175222
  Y       0.6667800    0.2824189   -0.6896695
  Z      -0.5633367   -0.4148581   -0.7145240

Note: Tensor is right-handed


 Quadrupole tensor eigenvalues (in MHz;Q=-0.0430 I=  3.5)
  e**2qQ            =    -5.104367 MHz 
  e**2qQ/(4I*(2I-1))=    -0.060766 MHz 
  eta               =     0.285046
  NOTE: the diagonal representation of the SH term I*Q*I = e**2qQ/(4I(2I-1))*[-(1-eta),-(1+eta),2]

 RHO(0)=   8115.100438482 a.u.**-3


--------------------------------------------------------------------------------
----------------------------------------------------------------------------
                           ORCA EULER ANGLE PROGRAM
----------------------------------------------------------------------------

Only g-tensor available        -->  using g-tensor as reference tensor

Reference tensor               ...  g

g-tensor ordering              ...  |g_min> --> |gx>
                                    |g_mid> --> |gy>
                                    |g_max> --> |gz>

A- and EFG-tensor ordering     ...  the axes |Ax>, |Qx>, |Ay>, etc. are assigned
                                    such that the Euler rotation is minimal. You
                                    can find the respective eigenvalues as Ax,
                                    EFGx, Ay, etc. in the tables below.
                                    The relation of |Ax>, |Ay>,  etc. to Amin, Amid, etc.
                                    (as printed in the ORCA EPR/NMR CALCULATION Output)
                                    is obtained in the detailed printout.

Euler rotation around          ...  z - y - z
   First rotation              -->  by alpha around z
   Second rotation             -->  by beta around y'
   Third rotation              -->  by gamma around z''
   Positive / Negative angle   -->  clockwise / counterclockwise rotation

Plot EFG-tensors                    (-)
Plot HFC-tensors                    (-)
Detailed Printout                   (-)

-------------------------------------------------------------------------
          Euler rotation of hyperfine tensor to g-tensor
-------------------------------------------------------------------------

-------------------------------------------------------------------
 Atom  |   Alpha    Beta    Gamma   |   Ax       Ay       Az 
       |          [degrees]         |           [MHz]         
-------------------------------------------------------------------
  9H       36.2     19.2    -60.2      -1.45     2.35    -1.56
 10H     -179.1     17.7    179.9      -1.52     1.27    -1.54
 11H      102.9     45.2   -119.4      -2.12     4.15    -1.89
 12H       87.7     29.9    -80.9      -0.38     1.88    -0.33
 13H       24.8     33.4     19.4      -1.45     2.84    -1.10
 14H     -110.3     49.3    133.9      -2.59    -2.41     0.73
 18H     -152.5     36.0    118.3      -1.70    -1.57     1.58
 19H       87.1     30.6    -63.0      -3.66     4.07    -3.56
 20H      -67.7     40.9     62.9       0.73     0.71     3.11
 21H       78.0     29.9    -83.2      -0.62     1.95    -0.58
 22H      149.8     32.8    165.3      -2.92     0.62    -2.75
 23H     -141.2     40.8    165.1       4.48    -1.68    -2.15
  0V      127.7     46.8   -119.6    -393.26   -79.15   -87.45
-------------------------------------------------------------------


-------------------------------------------------------------------------------
    Euler rotation of Electric Field Gradient (EFG) tensor to g-tensor
-------------------------------------------------------------------------------

-------------------------------------------------------------------
 Atom  |   Alpha    Beta    Gamma  |   EFGx     EFGy     EFGz
       |          [degrees]        |         [a.u.**-3]       
-------------------------------------------------------------------
  9H      113.5     27.0   -103.8      0.28    -0.14    -0.14
 10H     -144.9     31.6    171.2     -0.14     0.28    -0.14
 11H       50.0     58.4    -40.5     -0.13    -0.14     0.26
 12H       49.2     45.7    -28.5     -0.13     0.26    -0.13
 13H     -173.3     41.7    133.5      0.28    -0.13    -0.14
 14H     -123.2     26.0    163.9     -0.14    -0.15     0.28
 18H      173.4     33.3    147.9     -0.15    -0.14     0.29
 19H        2.8     40.3    -26.1     -0.15    -0.14     0.29
 20H       -2.7     28.9     -3.5     -0.14    -0.14     0.28
 21H      -20.6     27.8     32.2     -0.13     0.28    -0.14
 22H     -157.5     33.1    116.6     -0.15     0.29    -0.14
 23H      -29.9     32.7     56.5     -0.15     0.29    -0.14
  0V     -175.5     39.9    154.2      0.51    -0.32    -0.18
-------------------------------------------------------------------


Maximum memory used throughout the entire EPRNMR-calculation: 159.7 MB

Timings for individual modules:

Sum of individual times         ...      875.454 sec (=  14.591 min)
GTO integral calculation        ...        0.954 sec (=   0.016 min)   0.1 %
Spin-Orbit-Coupling Matrices    ...        5.234 sec (=   0.087 min)   0.6 %
SCF iterations                  ...      110.169 sec (=   1.836 min)  12.6 %
EPR/NMR calculation             ...      759.096 sec (=  12.652 min)  86.7 %
                             ****ORCA TERMINATED NORMALLY****
TOTAL RUN TIME: 0 days 0 hours 14 minutes 36 seconds 342 msec
