
                                 *****************
                                 * O   R   C   A *
                                 *****************

                                            #,                                       
                                            ###                                      
                                            ####                                     
                                            #####                                    
                                            ######                                   
                                           ########,                                 
                                     ,,################,,,,,                         
                               ,,#################################,,                 
                          ,,##########################################,,             
                       ,#########################################, ''#####,          
                    ,#############################################,,   '####,        
                  ,##################################################,,,,####,       
                ,###########''''           ''''###############################       
              ,#####''   ,,,,##########,,,,          '''####'''          '####       
            ,##' ,,,,###########################,,,                        '##       
           ' ,,###''''                  '''############,,,                           
         ,,##''                                '''############,,,,        ,,,,,,###''
      ,#''                                            '''#######################'''  
     '                                                          ''''####''''         
             ,#######,   #######,   ,#######,      ##                                
            ,#'     '#,  ##    ##  ,#'     '#,    #''#        ######   ,####,        
            ##       ##  ##   ,#'  ##            #'  '#       #        #'  '#        
            ##       ##  #######   ##           ,######,      #####,   #    #        
            '#,     ,#'  ##    ##  '#,     ,#' ,#      #,         ##   #,  ,#        
             '#######'   ##     ##  '#######'  #'      '#     #####' # '####'        



                  #######################################################
                  #                        -***-                        #
                  #          Department of theory and spectroscopy      #
                  #    Directorship and core code : Frank Neese         #
                  #        Max Planck Institute fuer Kohlenforschung    #
                  #                Kaiser Wilhelm Platz 1               #
                  #                 D-45470 Muelheim/Ruhr               #
                  #                      Germany                        #
                  #                                                     #
                  #                  All rights reserved                #
                  #                        -***-                        #
                  #######################################################


                         Program Version 5.0.4 -  RELEASE  -


 With contributions from (in alphabetic order):
   Daniel Aravena         : Magnetic Suceptibility
   Michael Atanasov       : Ab Initio Ligand Field Theory (pilot matlab implementation)
   Alexander A. Auer      : GIAO ZORA, VPT2 properties, NMR spectrum
   Ute Becker             : Parallelization
   Giovanni Bistoni       : ED, misc. LED, open-shell LED, HFLD
   Martin Brehm           : Molecular dynamics
   Dmytro Bykov           : SCF Hessian
   Vijay G. Chilkuri      : MRCI spin determinant printing, contributions to CSF-ICE
   Dipayan Datta          : RHF DLPNO-CCSD density
   Achintya Kumar Dutta   : EOM-CC, STEOM-CC
   Dmitry Ganyushin       : Spin-Orbit,Spin-Spin,Magnetic field MRCI
   Miquel Garcia          : C-PCM and meta-GGA Hessian, CC/C-PCM, Gaussian charge scheme
   Yang Guo               : DLPNO-NEVPT2, F12-NEVPT2, CIM, IAO-localization
   Andreas Hansen         : Spin unrestricted coupled pair/coupled cluster methods
   Benjamin Helmich-Paris : MC-RPA, TRAH-SCF, COSX integrals
   Lee Huntington         : MR-EOM, pCC
   Robert Izsak           : Overlap fitted RIJCOSX, COSX-SCS-MP3, EOM
   Marcus Kettner         : VPT2
   Christian Kollmar      : KDIIS, OOCD, Brueckner-CCSD(T), CCSD density, CASPT2, CASPT2-K
   Simone Kossmann        : Meta GGA functionals, TD-DFT gradient, OOMP2, MP2 Hessian
   Martin Krupicka        : Initial AUTO-CI
   Lucas Lang             : DCDCAS
   Marvin Lechner         : AUTO-CI (C++ implementation), FIC-MRCC
   Dagmar Lenk            : GEPOL surface, SMD
   Dimitrios Liakos       : Extrapolation schemes; Compound Job, initial MDCI parallelization
   Dimitrios Manganas     : Further ROCIS development; embedding schemes
   Dimitrios Pantazis     : SARC Basis sets
   Anastasios Papadopoulos: AUTO-CI, single reference methods and gradients
   Taras Petrenko         : DFT Hessian,TD-DFT gradient, ASA, ECA, R-Raman, ABS, FL, XAS/XES, NRVS
   Peter Pinski           : DLPNO-MP2, DLPNO-MP2 Gradient
   Christoph Reimann      : Effective Core Potentials
   Marius Retegan         : Local ZFS, SOC
   Christoph Riplinger    : Optimizer, TS searches, QM/MM, DLPNO-CCSD(T), (RO)-DLPNO pert. Triples
   Tobias Risthaus        : Range-separated hybrids, TD-DFT gradient, RPA, STAB
   Michael Roemelt        : Original ROCIS implementation
   Masaaki Saitow         : Open-shell DLPNO-CCSD energy and density
   Barbara Sandhoefer     : DKH picture change effects
   Avijit Sen             : IP-ROCIS
   Kantharuban Sivalingam : CASSCF convergence, NEVPT2, FIC-MRCI
   Bernardo de Souza      : ESD, SOC TD-DFT
   Georgi Stoychev        : AutoAux, RI-MP2 NMR, DLPNO-MP2 response
   Willem Van den Heuvel  : Paramagnetic NMR
   Boris Wezisla          : Elementary symmetry handling
   Frank Wennmohs         : Technical directorship


 We gratefully acknowledge several colleagues who have allowed us to
 interface, adapt or use parts of their codes:
   Stefan Grimme, W. Hujo, H. Kruse, P. Pracht,  : VdW corrections, initial TS optimization,
                  C. Bannwarth, S. Ehlert          DFT functionals, gCP, sTDA/sTD-DF
   Ed Valeev, F. Pavosevic, A. Kumar             : LibInt (2-el integral package), F12 methods
   Garnet Chan, S. Sharma, J. Yang, R. Olivares  : DMRG
   Ulf Ekstrom                                   : XCFun DFT Library
   Mihaly Kallay                                 : mrcc  (arbitrary order and MRCC methods)
   Jiri Pittner, Ondrej Demel                    : Mk-CCSD
   Frank Weinhold                                : gennbo (NPA and NBO analysis)
   Christopher J. Cramer and Donald G. Truhlar   : smd solvation model
   Lars Goerigk                                  : TD-DFT with DH, B97 family of functionals
   V. Asgeirsson, H. Jonsson                     : NEB implementation
   FAccTs GmbH                                   : IRC, NEB, NEB-TS, DLPNO-Multilevel, CI-OPT
                                                   MM, QMMM, 2- and 3-layer-ONIOM, Crystal-QMMM,
                                                   LR-CPCM, SF, NACMEs, symmetry and pop. for TD-DFT,
                                                   nearIR, NL-DFT gradient (VV10), updates on ESD,
                                                   ML-optimized integration grids
   S Lehtola, MJT Oliveira, MAL Marques          : LibXC Library
   Liviu Ungur et al                             : ANISO software


 Your calculation uses the libint2 library for the computation of 2-el integrals
 For citations please refer to: http://libint.valeyev.net

 Your ORCA version has been built with support for libXC version: 5.1.0
 For citations please refer to: https://tddft.org/programs/libxc/

 This ORCA versions uses:
   CBLAS   interface :  Fast vector & matrix operations
   LAPACKE interface :  Fast linear algebra routines
   SCALAPACK package :  Parallel linear algebra routines
   Shared memory     :  Shared parallel matrices
   BLAS/LAPACK       :  OpenBLAS 0.3.15  USE64BITINT DYNAMIC_ARCH NO_AFFINITY Prescott SINGLE_THREADED
        Core in use  :  Prescott
   Copyright (c) 2011-2014, The OpenBLAS Project


XCFun DFT library Copyright 2009-2010 Ulf Ekstrom and contributors.
See http://admol.org/xcfun for more information.
This is free software; see the source code for copying conditions.
There is ABSOLUTELY NO WARRANTY; not even for MERCHANTABILITY or FITNESS FOR A PARTICULAR PURPOSE.
For details see the documentation.
Scientific users of this library should cite U. Ekstrom, L. Visscher, R. Bast, A. J. Thorvaldsen and K. Ruud;
J.Chem.Theor.Comp. 2010, DOI: 10.1021/ct100117s
XCFun Version 0.99 

================================================================================

----- Orbital basis set information -----
Your calculation utilizes the basis: ANO-RCC-DZP
   H, He:       P.-O. Widmark, P.-A. Malmqvist, and B. O. Roos, Theor. Chim. Acta 77, 291 (1990).
   s block:     B. O. Roos, V. Veryazov and P.-O. Widmark, Theor. Chem. Acc. 111, 345 (2004).
   p block:     B. O. Roos, R. Lindh, P.-A. Malmqvist, V. Veryazov, and P.-O. Widmark, J. Phys. Chem. A 108, 2851 (2004).
   d block:     B. O. Roos, R. Lindh, P.-A. Malmqvist, V. Veryazov, and P.-O. Widmark, J. Phys. Chem. A 109, 6575 (2005).
   actinides:   B. O. Roos, R. Lindh, P.-A. Malmqvist, V. Veryazov, and P.-O. Widmark, Chem. Phys. Letters 409, 295 (2005).
   lanthanides: B. O. Roos, R. Lindh, P.-A. Malmqvist, V. Veryazov, P.-O. Widmark and A. C. Borin, J. Phys. Chem. A 112, 11431 (2008).

The basis set includes element-specific modifications.

Your calculation utilizes the basis: ANO-RCC-TZP
   H, He:       P.-O. Widmark, P.-A. Malmqvist, and B. O. Roos, Theor. Chim. Acta 77, 291 (1990).
   s block:     B. O. Roos, V. Veryazov and P.-O. Widmark, Theor. Chem. Acc. 111, 345 (2004).
   p block:     B. O. Roos, R. Lindh, P.-A. Malmqvist, V. Veryazov, and P.-O. Widmark, J. Phys. Chem. A 108, 2851 (2004).
   d block:     B. O. Roos, R. Lindh, P.-A. Malmqvist, V. Veryazov, and P.-O. Widmark, J. Phys. Chem. A 109, 6575 (2005).
   actinides:   B. O. Roos, R. Lindh, P.-A. Malmqvist, V. Veryazov, and P.-O. Widmark, Chem. Phys. Letters 409, 295 (2005).
   lanthanides: B. O. Roos, R. Lindh, P.-A. Malmqvist, V. Veryazov, P.-O. Widmark and A. C. Borin, J. Phys. Chem. A 112, 11431 (2008).

----- AuxJ basis set information -----
Your calculation utilizes the AutoAux generation procedure.
  G. L. Stoychev, A. A. Auer, F. Neese, J. Chem. Theory Comput. 13, 554 (2017)

----- AuxC basis set information -----
Your calculation utilizes the AutoAux generation procedure.
  G. L. Stoychev, A. A. Auer, F. Neese, J. Chem. Theory Comput. 13, 554 (2017)

----- AuxJK basis set information -----
Your calculation utilizes the AutoAux generation procedure.
  G. L. Stoychev, A. A. Auer, F. Neese, J. Chem. Theory Comput. 13, 554 (2017)

================================================================================
                                        WARNINGS
                       Please study these warnings very carefully!
================================================================================


Removing linear dependencies from the Orbital basis set:
  S-ok PCD(Thresh=Auto)-ok done ( 1.510 sec)
  Dim=575 Nullspace=0 Removed 0 shells / 0 basis functions

Removing linear dependencies from the AuxJ basis set:
  V-ok PCD(Thresh=Auto)-ok done (104.040 sec)
  Dim=4792 Nullspace=1 Removed 1 shells / 1 basis functions

Removing linear dependencies from the AuxC basis set:
  V-ok PCD(Thresh=Auto)-ok done (105.592 sec)
  Dim=4792 Nullspace=1 Removed 1 shells / 1 basis functions

Removing linear dependencies from the AuxJK basis set:
  V-ok PCD(Thresh=Auto)-ok done (103.271 sec)
  Dim=4792 Nullspace=1 Removed 1 shells / 1 basis functions


WARNING: Found flag for RIJCOSX approximation but no HF exchange needed!
  ===> : RIJCOSX  will be disabled and Split-RI-J is turned on

WARNING: your system is open-shell and RHF/RKS was chosen
  ===> : WILL SWITCH to UHF/UKS


WARNING: Minnesota functionals are quite sensitive to the integration grid.
         see SE Wheeler, KN Houk, JCTC 2010, 6, 395,
             N Mardirossian, M Head-Gordon, JCTC 2016, 12, 4303.
         DEFGRID3 seems to be a minimum grid for reliable results with these functionals!
  ===> : Please increase the integration grid!


INFO   : the flag for use of the SHARK integral package has been found!

================================================================================
                                       INPUT FILE
================================================================================
NAME = input_79.inp
|  1> ! RIJCOSX nofrozencore ReducedPop printbasis
|  2> ! M06L ano-rcc-dzp autoaux
|  3> 
|  4> %maxcore 7500
|  5> %basis
|  6> PCDTrimBas overlap
|  7> PCDTrimAuxJ Coulomb
|  8> PCDTrimAuxJK Coulomb
|  9> PCDTrimAuxC Coulomb
| 10> PCDThresh -1
| 11> end
| 12> 
| 13> %basis
| 14> newgto Cu "ano-rcc-tzp" end
| 15> newgto Se "ano-rcc-tzp" end
| 16> end
| 17> 
| 18> %pal
| 19> nprocs 8
| 20> end
| 21> 
| 22> % sym SymThresh 1e-2 end
| 23> * xyz -2 2 
| 24> Cu 5.882584772564512e-06 6.3914312160617555e-06 1.6898070996535182e-05
| 25> Se 2.059469369777523 -1.132882405856822 -0.28833954966190495
| 26> C 1.8113594573157297 -2.616923428183087 0.35705670362751074
| 27> Se 0.7017322762984332 2.025275172133205 -1.0068852570654887
| 28> C -0.6232581132781821 2.9878839065138254 -0.9713794424747737
| 29> Se -0.7007563864456371 -2.0242148673335723 1.0096885581065982
| 30> C 0.6066212347121951 -3.005959883166198 0.923589029580099
| 31> Se -2.058494099144177 1.1339420378742218 0.291141071958699
| 32> C -1.8279920013455686 2.5988521610063473 -0.4048346653119774
| 33> C -2.8125650075828608 3.5828123625088684 -0.29182920882434205
| 34> C -0.5214253564985241 4.322665546214951 -1.3692726022544182
| 35> C -1.5684952113141455 5.22075519772465 -1.4499231717786465
| 36> H 0.2892851913183962 4.476403855137856 -2.183838321212634
| 37> C -2.7745062340311133 4.831305523886718 -0.8827970848899358
| 38> H -3.8780913014134013 3.1306894186705083 -0.22401907547623295
| 39> H -1.390519159179843 6.232683116450709 -1.807029784927203
| 40> H -3.6115872864239797 5.5154430232462275 -0.7626014434383045
| 41> C 2.8366223796816854 -3.55667533533585 0.3609345201994859
| 42> C 0.5454780071946408 -4.296532329536941 1.4383652570706198
| 43> C 2.768422480194217 -4.837916844700334 0.8653202379674644
| 44> H 3.7665745226604463 -3.2518524530156245 -0.09631943514939989
| 45> C 1.562415018280278 -5.227360011101384 1.432458365368914
| 46> H -0.4008081622658488 -4.597573617305305 1.863482023143847
| 47> H 3.630544380268156 -5.494846131565794 0.8170568112828757
| 48> H 1.4094870723309028 -6.212072487026483 1.8615200414088082
| 49> * 
| 50> 
| 51> % eprnmr
| 52> gtensor true
| 53> Nuclei = all H {aiso,adip,aorb,fgrad,rho}
| 54> Nuclei = all Cu {aiso,adip,aorb,fgrad,rho}
| 55> end
| 56> 
| 57>                          ****END OF INPUT****
================================================================================

------------------------------------------------------------------------------
                            SYMMETRY HANDLING SETUP
------------------------------------------------------------------------------

------------------
SYMMETRY DETECTION
------------------
The point group will now be determined using a tolerance of 1.0000e-02.
Splitting atom subsets according to nuclear charge, mass and basis set.
Splitting atom subsets according to distance from the molecule's center.
Identifying relative distance patterns of the atoms.
Splitting atom subsets according to atoms' relative distance patterns.
Bring atoms of each subset into input order.
The molecule is neither linear nor planar.
There is at least one atom subset not centered around the molecule's center.
The molecule does not have a center of inversion.
Analyzing the first atom subset for its symmetry.
The atom subset represents a 4-gon with alternating side lengths
that is not centered around the molecule's center.
Testing point group C2v.
Test failed.
Testing point group C2.
Test failed.
Testing point group Cs.
Success!
This point group has been found:    Cs
Largest non-degenerate subgroup:    Cs


Mass-centered symmetry-perfected Cartesians (point group Cs):

Atom          Symmetry-perfected Cartesians (x, y, z; au)
  0       0.000010430699    0.000034503742   -0.000000000000
  1      -3.177317936848    0.956958084969    3.002553728831
  2      -5.658616576745    1.700100713731    1.310502397128
  3       3.179034984033   -0.951256199142    3.002553728825
  4       5.629341863113   -1.797319639748    1.310502397169
  5      -3.177317936848    0.956958084969   -3.002553728831
  6      -5.658616576745    1.700100713731   -1.310502397128
  7       3.179034984033   -0.951256199142   -3.002553728825
  8       5.629341863113   -1.797319639748   -1.310502397169
  9       7.946178139941   -2.244994126489   -2.492287988450
 10       7.946178139941   -2.244994126489    2.492287988450
 11      10.118904269196   -3.084395541885    1.311885676643
 12       7.701640165735   -3.003612001955    4.533262133099
 13      10.118904269196   -3.084395541885   -1.311885676643
 14       7.701640165735   -3.003612001955   -4.533262133099
 15      11.815527985315   -3.441573623633    2.416044152807
 16      11.815527985315   -3.441573623633   -2.416044152807
 17      -7.903845621911    2.385579564651    2.492287988409
 18      -7.903845621911    2.385579564651   -2.492287988409
 19     -10.129607573773    3.048850572001    1.311885676684
 20      -7.897900092934    2.351850407405    4.533262133040
 21     -10.129607573773    3.048850572001   -1.311885676684
 22      -7.897900092934    2.351850407405   -4.533262133040
 23     -11.782154346339    3.552400887369    2.416045097786
 24     -11.782154346339    3.552400887369   -2.416045097786


-----------------------------------------------
SYMMETRY-PERFECTED CARTESIAN COORDINATES (A.U.)
-----------------------------------------------
Warning (ORCA_SYM): Coordinates were not cleaned so far!

------------------
SYMMETRY REDUCTION
------------------
ORCA supports only abelian point groups.
It is now checked, if the determined point group is supported:
Point Group ( Cs    ) is          ... supported

(Re)building abelian point group:
Creating Character Table          ... done
Making direct product table       ... done
Constructing symmetry operations  ... done
Creating atom transfer table      ... done
Creating asymmetric unit          ... done

---------------------
ASYMMETRIC UNIT IN Cs
---------------------
  #  AT     MASS              COORDS (A.U.)             BAS
   0 Cu  63.5500   0.00001043   0.00003450  -0.00000000   0
   1 Se  78.9600  -3.17731794   0.95695808   3.00255373   0
   2 C   12.0110  -5.65861658   1.70010071   1.31050240   0
   3 Se  78.9600   3.17903498  -0.95125620   3.00255373   0
   4 C   12.0110   5.62934186  -1.79731964   1.31050240   0
   9 C   12.0110   7.94617814  -2.24499413  -2.49228799   0
  11 C   12.0110  10.11890427  -3.08439554   1.31188568   0
  12 H    1.0080   7.70164017  -3.00361200   4.53326213   0
  15 H    1.0080  11.81552799  -3.44157362   2.41604415   0
  17 C   12.0110  -7.90384562   2.38557956   2.49228799   0
  19 C   12.0110 -10.12960757   3.04885057   1.31188568   0
  20 H    1.0080  -7.89790009   2.35185041   4.53326213   0
  23 H    1.0080 -11.78215435   3.55240089   2.41604510   0

----------------------
SYMMETRY ADAPTED BASIS
----------------------
The coefficients for the symmetry adapted linear combinations (SALCS)
of basis functions will now be computed:
Number of basis functions         ...   575
Preparing memory                  ... done
Constructing Gamma(red)           ... done
Reducing Gamma(red)               ... done
Constructing SALCs                ... done
Checking SALC integrity           ... nothing suspicious
Normalizing SALCs                 ... done

Storing the symmetry object:
Symmetry file                     ... input_79.sym.tmp
Writing symmetry information      ... done

                       ****************************
                       * Single Point Calculation *
                       ****************************

---------------------------------
CARTESIAN COORDINATES (ANGSTROEM)
---------------------------------
  Cu     0.000006    0.000018   -0.000000
  Se    -1.681364    0.506400    1.588883
  C     -2.994411    0.899655    0.693488
  Se     1.682273   -0.503383    1.588883
  C      2.978919   -0.951101    0.693488
  Se    -1.681364    0.506400   -1.588883
  C     -2.994411    0.899655   -0.693488
  Se     1.682273   -0.503383   -1.588883
  C      2.978919   -0.951101   -0.693488
  C      4.204936   -1.188000   -1.318862
  C      4.204936   -1.188000    1.318862
  C      5.354694   -1.632192    0.694220
  H      4.075532   -1.589443    2.398899
  C      5.354694   -1.632192   -0.694220
  H      4.075532   -1.589443   -2.398899
  H      6.252508   -1.821202    1.278515
  H      6.252508   -1.821202   -1.278515
  C     -4.182535    1.262394    1.318862
  C     -4.182535    1.262394   -1.318862
  C     -5.360357    1.613382    0.694220
  H     -4.179389    1.244546    2.398899
  C     -5.360357    1.613382   -0.694220
  H     -4.179389    1.244546   -2.398899
  H     -6.234848    1.879850    1.278516
  H     -6.234848    1.879850   -1.278516

----------------------------
CARTESIAN COORDINATES (A.U.)
----------------------------
  NO LB      ZA    FRAG     MASS         X           Y           Z
   0 Cu   29.0000    0    63.550    0.000010    0.000035   -0.000000
   1 Se   34.0000    0    78.960   -3.177318    0.956958    3.002554
   2 C     6.0000    0    12.011   -5.658617    1.700101    1.310502
   3 Se   34.0000    0    78.960    3.179035   -0.951256    3.002554
   4 C     6.0000    0    12.011    5.629342   -1.797320    1.310502
   5 Se   34.0000    0    78.960   -3.177318    0.956958   -3.002554
   6 C     6.0000    0    12.011   -5.658617    1.700101   -1.310502
   7 Se   34.0000    0    78.960    3.179035   -0.951256   -3.002554
   8 C     6.0000    0    12.011    5.629342   -1.797320   -1.310502
   9 C     6.0000    0    12.011    7.946178   -2.244994   -2.492288
  10 C     6.0000    0    12.011    7.946178   -2.244994    2.492288
  11 C     6.0000    0    12.011   10.118904   -3.084396    1.311886
  12 H     1.0000    0     1.008    7.701640   -3.003612    4.533262
  13 C     6.0000    0    12.011   10.118904   -3.084396   -1.311886
  14 H     1.0000    0     1.008    7.701640   -3.003612   -4.533262
  15 H     1.0000    0     1.008   11.815528   -3.441574    2.416044
  16 H     1.0000    0     1.008   11.815528   -3.441574   -2.416044
  17 C     6.0000    0    12.011   -7.903846    2.385580    2.492288
  18 C     6.0000    0    12.011   -7.903846    2.385580   -2.492288
  19 C     6.0000    0    12.011  -10.129608    3.048851    1.311886
  20 H     1.0000    0     1.008   -7.897900    2.351850    4.533262
  21 C     6.0000    0    12.011  -10.129608    3.048851   -1.311886
  22 H     1.0000    0     1.008   -7.897900    2.351850   -4.533262
  23 H     1.0000    0     1.008  -11.782154    3.552401    2.416045
  24 H     1.0000    0     1.008  -11.782154    3.552401   -2.416045

--------------------------------
INTERNAL COORDINATES (ANGSTROEM)
--------------------------------
 Cu     0   0   0     0.000000000000     0.00000000     0.00000000
 Se     1   0   0     2.368116619394     0.00000000     0.00000000
 C      2   1   0     1.637214893766   104.70499652     0.00000000
 Se     1   2   3     2.368118560321    95.71945165   180.00030143
 C      4   1   2     1.638131792881   104.69403087   178.00672434
 Se     1   2   3     2.368116619428    84.28054109     0.07602051
 C      3   2   1     1.386976000029   123.15469030   359.93313435
 Se     1   2   3     2.368118559041   179.92470625    90.07424480
 C      5   4   1     1.386976000009   123.13373435     1.83220885
 C      9   5   4     1.396542844294   116.60273957   171.88682578
 C      5   4   1     1.396542481501   119.76767851   173.47346638
 C     11   5   4     1.381819386670   125.63121700   176.63330064
 H     11   5   4     1.159484527915   112.20183693    30.78247946
 C     10   9   5     1.381820058761   125.63102085    11.19250395
 H     10   9   5     1.159465244574   112.20245933   157.04452126
 H     12  11   5     1.087749383353   119.98736341   182.22663538
 H     14  10   9     1.087748040002   119.98745257   177.77074157
 C      3   2   1     1.390795723475   120.12325529   180.24718734
 C      7   3   2     1.390794843962   116.72137201   180.30467698
 C     18   3   2     1.378635551514   126.33545127   180.12993475
 H     18   3   2     1.080189408159   116.28206848   358.74826342
 C     19   7   3     1.378635538731   126.33543308   359.57492580
 H     19   7   3     1.080188704000   116.28211192   180.95376206
 H     20  18   3     1.084960652228   120.47274178   179.91976480
 H     22  19   7     1.084960616217   120.47274592   180.08120575

---------------------------
INTERNAL COORDINATES (A.U.)
---------------------------
 Cu     0   0   0     0.000000000000     0.00000000     0.00000000
 Se     1   0   0     4.475091863842     0.00000000     0.00000000
 C      2   1   0     3.093887771595   104.70499652     0.00000000
 Se     1   2   3     4.475095531663    95.71945165   180.00030143
 C      4   1   2     3.095620459814   104.69403087   178.00672434
 Se     1   2   3     4.475091863906    84.28054109     0.07602051
 C      3   2   1     2.621004794377   123.15469030   359.93313435
 Se     1   2   3     4.475095529244   179.92470625    90.07424480
 C      5   4   1     2.621004794339   123.13373435     1.83220885
 C      9   5   4     2.639083510003   116.60273957   171.88682578
 C      5   4   1     2.639082824423   119.76767851   173.47346638
 C     11   5   4     2.611260207349   125.63121700   176.63330064
 H     11   5   4     2.191108214278   112.20183693    30.78247946
 C     10   9   5     2.611261477416   125.63102085    11.19250395
 H     10   9   5     2.191071774044   112.20245933   157.04452126
 H     12  11   5     2.055548436879   119.98736341   182.22663538
 H     14  10   9     2.055545898314   119.98745257   177.77074157
 C      3   2   1     2.628223025597   120.12325529   180.24718734
 C      7   3   2     2.628221363558   116.72137201   180.30467698
 C     18   3   2     2.605243630848   126.33545127   180.12993475
 H     18   3   2     2.041262154183   116.28206848   358.74826342
 C     19   7   3     2.605243606692   126.33543308   359.57492580
 H     19   7   3     2.041260823516   116.28211192   180.95376206
 H     20  18   3     2.050278498792   120.47274178   179.91976480
 H     22  19   7     2.050278430740   120.47274592   180.08120575

---------------------
BASIS SET INFORMATION
---------------------
There are 4 groups of distinct atoms

 Group   1 Type Cu  : 126s75p30d12f4g contracted to 6s5p3d2f1g pattern {212121212121/1515151515/101010/66/4}
 Group   2 Type Se  : 120s85p33d8f2g contracted to 6s5p3d2f1g pattern {202020202020/1717171717/111111/44/2}
 Group   3 Type C   : 42s18p4d contracted to 3s2p1d pattern {141414/99/4}
 Group   4 Type H   : 24s8p3d contracted to 3s2p1d pattern {888/44/3}

Atom   0Cu   basis set group =>   1
Atom   1Se   basis set group =>   2
Atom   2C    basis set group =>   3
Atom   3Se   basis set group =>   2
Atom   4C    basis set group =>   3
Atom   5Se   basis set group =>   2
Atom   6C    basis set group =>   3
Atom   7Se   basis set group =>   2
Atom   8C    basis set group =>   3
Atom   9C    basis set group =>   3
Atom  10C    basis set group =>   3
Atom  11C    basis set group =>   3
Atom  12H    basis set group =>   4
Atom  13C    basis set group =>   3
Atom  14H    basis set group =>   4
Atom  15H    basis set group =>   4
Atom  16H    basis set group =>   4
Atom  17C    basis set group =>   3
Atom  18C    basis set group =>   3
Atom  19C    basis set group =>   3
Atom  20H    basis set group =>   4
Atom  21C    basis set group =>   3
Atom  22H    basis set group =>   4
Atom  23H    basis set group =>   4
Atom  24H    basis set group =>   4

-------------------------
BASIS SET IN INPUT FORMAT
-------------------------

 # Basis set for element : H 
 NewGTO H 
 S 8 
   1     188.6144500000      0.0009638500
   2      28.2765960000      0.0074919600
   3       6.4248300000      0.0375954101
   4       1.8150410000      0.1433949804
   5       0.5910630000      0.3486363010
   6       0.2121490000      0.4382973612
   7       0.0798910000      0.1651066105
   8       0.0279620000      0.0210228701
 S 8 
   1     188.6144500000     -0.0013119000
   2      28.2765960000     -0.0103451000
   3       6.4248300000     -0.0504952998
   4       1.8150410000     -0.2073854991
   5       0.5910630000     -0.4350884981
   6       0.2121490000     -0.0247296999
   7       0.0798910000      0.3225259886
   8       0.0279620000      0.7072753770
 S 8 
   1     188.6144500000      0.0024224000
   2      28.2765960000      0.0203381700
   3       6.4248300000      0.0896393498
   4       1.8150410000      0.4422907090
   5       0.5910630000      0.5757143887
   6       0.2121490000     -0.9802889977
   7       0.0798910000     -0.6721537984
   8       0.0279620000      1.1417684974
 P 4 
   1       2.3050000000      0.1127901896
   2       0.8067500000      0.4185075284
   3       0.2823620000      0.4700077282
   4       0.0988270000      0.1826260293
 P 4 
   1       2.3050000000     -0.2108687968
   2       0.8067500000     -0.5943795909
   3       0.2823620000      0.0896888786
   4       0.0988270000      0.8611633869
 D 3 
   1       1.8190000000      0.2705134090
   2       0.7276000000      0.5510124980
   3       0.2910400000      0.3310866388
  end;

 # Basis set for element : C 
 NewGTO C 
 S 14 
   1   50557.5010000000      0.0001128874
   2    7524.7856000000      0.0005295373
   3    1694.3276000000      0.0024500383
   4     472.8227900000      0.0100539847
   5     151.7107500000      0.0354539806
   6      53.9187460000      0.1044071086
   7      20.6593110000      0.2412894918
   8       8.3839760000      0.3834225483
   9       3.5770150000      0.3078514393
  10       1.5471180000      0.0687244299
  11       0.6130130000      0.0002224445
  12       0.2460680000      0.0019767489
  13       0.0990870000      0.0020578594
  14       0.0346800000      0.0004182020
 S 14 
   1   50557.5010000000     -0.0000250742
   2    7524.7856000000     -0.0001175945
   3    1694.3276000000     -0.0005456275
   4     472.8227900000     -0.0022450771
   5     151.7107500000     -0.0080434718
   6      53.9187460000     -0.0244258871
   7      20.6593110000     -0.0613679118
   8       8.3839760000     -0.1177767835
   9       3.5770150000     -0.1550487783
  10       1.5471180000     -0.0193331686
  11       0.6130130000      0.3996930678
  12       0.2460680000      0.5589420949
  13       0.0990870000      0.1711195023
  14       0.0346800000      0.0074562446
 S 14 
   1   50557.5010000000      0.0000161788
   2    7524.7856000000      0.0000749712
   3    1694.3276000000      0.0003573467
   4     472.8227900000      0.0014349316
   5     151.7107500000      0.0055086779
   6      53.9187460000      0.0169149690
   7      20.6593110000      0.0514166524
   8       8.3839760000      0.1137343741
   9       3.5770150000      0.2337183944
  10       1.5471180000     -0.0718378257
  11       0.6130130000     -1.0490908711
  12       0.2460680000     -0.0666273399
  13       0.0990870000      1.0119993798
  14       0.0346800000      0.1656046386
 P 9 
   1      83.3331550000      0.0013446560
   2      19.5576110000      0.0102355550
   3       6.0803650000      0.0452006710
   4       2.1793170000      0.1410756198
   5       0.8651500000      0.3047388085
   6       0.3619440000      0.3995281011
   7       0.1547400000      0.2719163432
   8       0.0654290000      0.0585766933
   9       0.0229000000     -0.0001263813
 P 9 
   1      83.3331550000     -0.0017715885
   2      19.5576110000     -0.0145621810
   3       6.0803650000     -0.0574573357
   4       2.1793170000     -0.2126582848
   5       0.8651500000     -0.5271712924
   6       0.3619440000     -0.0929697730
   7       0.1547400000      0.6630031669
   8       0.0654290000      0.3360877793
   9       0.0229000000      0.0054695244
 D 4 
   1       1.9000000000      0.1424518048
   2       0.6650000000      0.5591973019
   3       0.2327500000      0.4430004380
   4       0.0814630000      0.0410665370
  end;

 # Basis set for element : Cu
 NewGTO Cu
 S 21 
   1  9148883.0000000000      0.0001172200
   2  1369956.0000000000      0.0003315500
   3  311782.6000000000      0.0008824300
   4   88318.8000000000      0.0021722900
   5   28815.5300000000      0.0052954701
   6   10403.4600000000      0.0129663001
   7    4057.7910000000      0.0318805003
   8    1682.9740000000      0.0757656907
   9     733.7543000000      0.1624463715
  10     333.2677000000      0.2843595927
  11     156.4338000000      0.3417364333
  12      74.6972100000      0.2095508720
  13      33.3226200000      0.0354475103
  14      16.6223700000     -0.0024399600
  15       8.2082600000      0.0014699000
  16       3.6094000000     -0.0006437900
  17       1.6834490000      0.0002473800
  18       0.7337570000     -0.0000811800
  19       0.1102070000      0.0000161500
  20       0.0387860000     -0.0000123300
  21       0.0155140000      0.0000045200
 S 21 
   1  9148883.0000000000     -0.0000367500
   2  1369956.0000000000     -0.0001040300
   3  311782.6000000000     -0.0002773300
   4   88318.8000000000     -0.0006841700
   5   28815.5300000000     -0.0016768600
   6   10403.4600000000     -0.0041346000
   7    4057.7910000000     -0.0103512700
   8    1682.9740000000     -0.0253479100
   9     733.7543000000     -0.0583694699
  10     333.2677000000     -0.1167328398
  11     156.4338000000     -0.1846685996
  12      74.6972100000     -0.1470089897
  13      33.3226200000      0.1848325696
  14      16.6223700000      0.5677360889
  15       8.2082600000      0.3795609193
  16       3.6094000000      0.0470375499
  17       1.6834490000     -0.0007278300
  18       0.7337570000      0.0010297600
  19       0.1102070000     -0.0000702000
  20       0.0387860000      0.0000709000
  21       0.0155140000     -0.0000245400
 S 21 
   1  9148883.0000000000      0.0000138300
   2  1369956.0000000000      0.0000391400
   3  311782.6000000000      0.0001043900
   4   88318.8000000000      0.0002574500
   5   28815.5300000000      0.0006320300
   6   10403.4600000000      0.0015571800
   7    4057.7910000000      0.0039165900
   8    1682.9740000000      0.0095947599
   9     733.7543000000      0.0223883699
  10     333.2677000000      0.0452860597
  11     156.4338000000      0.0749837795
  12      74.6972100000      0.0618816996
  13      33.3226200000     -0.0904732694
  14      16.6223700000     -0.3928847174
  15       8.2082600000     -0.3566495576
  16       3.6094000000      0.3455479277
  17       1.6834490000      0.7063919653
  18       0.7337570000      0.2533591083
  19       0.1102070000      0.0065874900
  20       0.0387860000     -0.0004424700
  21       0.0155140000      0.0007233800
 S 21 
   1  9148883.0000000000     -0.0000027100
   2  1369956.0000000000     -0.0000076600
   3  311782.6000000000     -0.0000204700
   4   88318.8000000000     -0.0000503000
   5   28815.5300000000     -0.0001244200
   6   10403.4600000000     -0.0003026900
   7    4057.7910000000     -0.0007762800
   8    1682.9740000000     -0.0018524000
   9     733.7543000000     -0.0044827000
  10     333.2677000000     -0.0086602401
  11     156.4338000000     -0.0154472601
  12      74.6972100000     -0.0108986401
  13      33.3226200000      0.0146786701
  14      16.6223700000      0.0915412206
  15       8.2082600000      0.0633085704
  16       3.6094000000     -0.0609387904
  17       1.6834490000     -0.2714854517
  18       0.7337570000     -0.1013894406
  19       0.1102070000      0.7121218043
  20       0.0387860000      0.3461317521
  21       0.0155140000      0.0719870904
 S 21 
   1  9148883.0000000000      0.0000034600
   2  1369956.0000000000      0.0000097900
   3  311782.6000000000      0.0000262600
   4   88318.8000000000      0.0000639200
   5   28815.5300000000      0.0001608700
   6   10403.4600000000      0.0003802300
   7    4057.7910000000      0.0010171600
   8    1682.9740000000      0.0022915200
   9     733.7543000000      0.0059749700
  10     333.2677000000      0.0104469500
  11     156.4338000000      0.0215158300
  12      74.6972100000      0.0103012800
  13      33.3226200000     -0.0098432400
  14      16.6223700000     -0.1429262997
  15       8.2082600000     -0.0561270699
  16       3.6094000000      0.0913564998
  17       1.6834490000      0.4583140189
  18       0.7337570000     -0.1972673995
  19       0.1102070000     -1.3031015670
  20       0.0387860000      0.8797556780
  21       0.0155140000      0.5731088887
 S 21 
   1  9148883.0000000000     -0.0000140100
   2  1369956.0000000000     -0.0000395900
   3  311782.6000000000     -0.0001061200
   4   88318.8000000000     -0.0002590000
   5   28815.5300000000     -0.0006486500
   6   10403.4600000000     -0.0015477000
   7    4057.7910000000     -0.0040834200
   8    1682.9740000000     -0.0094020600
   9     733.7543000000     -0.0238911700
  10     333.2677000000     -0.0435983200
  11     156.4338000000     -0.0858885701
  12      74.6972100000     -0.0473486501
  13      33.3226200000      0.0638259201
  14      16.6223700000      0.5936354107
  15       8.2082600000      0.4150606205
  16       3.6094000000     -1.7002794219
  17       1.6834490000     -0.2979995603
  18       0.7337570000      1.7071942519
  19       0.1102070000     -0.6560005307
  20       0.0387860000     -0.3192452404
  21       0.0155140000      0.6177245607
 P 15 
   1    9713.2530000000      0.0003998700
   2    2300.8890000000      0.0021015700
   3     746.7706000000      0.0100109700
   4     284.6806000000      0.0383603898
   5     119.9999000000      0.1162675595
   6      54.0738600000      0.2589983089
   7      25.3732100000      0.3842822584
   8      12.2096200000      0.2991120987
   9       5.7574210000      0.0800067197
  10       2.6734020000      0.0031944000
  11       1.1868350000      0.0014725200
  12       0.4815930000     -0.0002339100
  13       0.1926370000      0.0002076100
  14       0.0770550000     -0.0000896300
  15       0.0308220000      0.0000278300
 P 15 
   1    9713.2530000000     -0.0001487900
   2    2300.8890000000     -0.0007826200
   3     746.7706000000     -0.0037622900
   4     284.6806000000     -0.0145796799
   5     119.9999000000     -0.0457109297
   6      54.0738600000     -0.1059301293
   7      25.3732100000     -0.1683622789
   8      12.2096200000     -0.1037321293
   9       5.7574210000      0.2108315487
  10       2.6734020000      0.4891644269
  11       1.1868350000      0.3846863776
  12       0.4815930000      0.0852933795
  13       0.1926370000     -0.0016104500
  14       0.0770550000      0.0020653000
  15       0.0308220000     -0.0006417500
 P 15 
   1    9713.2530000000      0.0000505300
   2    2300.8890000000      0.0002671900
   3     746.7706000000      0.0012771800
   4     284.6806000000      0.0049976000
   5     119.9999000000      0.0156137599
   6      54.0738600000      0.0368970098
   7      25.3732100000      0.0579646897
   8      12.2096200000      0.0379196598
   9       5.7574210000     -0.1170649894
  10       2.6734020000     -0.2091225689
  11       1.1868350000     -0.0580053197
  12       0.4815930000      0.1643073591
  13       0.1926370000      0.5288546572
  14       0.0770550000      0.3737301580
  15       0.0308220000      0.0839986596
 P 15 
   1    9713.2530000000     -0.0001587800
   2    2300.8890000000     -0.0008535900
   3     746.7706000000     -0.0039991900
   4     284.6806000000     -0.0160809199
   5     119.9999000000     -0.0492486397
   6      54.0738600000     -0.1216567894
   7      25.3732100000     -0.1771336691
   8      12.2096200000     -0.1444819692
   9       5.7574210000      0.6474331066
  10       2.6734020000      0.5479769171
  11       1.1868350000     -0.7818032059
  12       0.4815930000     -0.5260777772
  13       0.1926370000      0.2243717688
  14       0.0770550000      0.3339245282
  15       0.0308220000      0.1444637392
 P 15 
   1    9713.2530000000      0.0001267900
   2    2300.8890000000      0.0006839700
   3     746.7706000000      0.0032029100
   4     284.6806000000      0.0130135100
   5     119.9999000000      0.0402137099
   6      54.0738600000      0.1015010898
   7      25.3732100000      0.1370095397
   8      12.2096200000      0.1062897198
   9       5.7574210000     -0.8339026482
  10       2.6734020000      0.1441200197
  11       1.1868350000      0.9830123878
  12       0.4815930000     -0.5295641788
  13       0.1926370000     -0.7530398383
  14       0.0770550000      0.4428869990
  15       0.0308220000      0.5751158887
 D 10 
   1     249.3497000000      0.0013456100
   2      74.6383700000      0.0108098300
   3      28.3764100000      0.0473379301
   4      11.9489300000      0.1377258202
   5       5.3176460000      0.2626383304
   6       2.3644170000      0.3347040105
   7       1.0123860000      0.3100059705
   8       0.4067730000      0.2131681903
   9       0.1473310000      0.0786536501
  10       0.0589320000      0.0060309600
 D 10 
   1     249.3497000000     -0.0015835900
   2      74.6383700000     -0.0128111601
   3      28.3764100000     -0.0564267902
   4      11.9489300000     -0.1664139307
   5       5.3176460000     -0.3510601415
   6       2.3644170000     -0.2371789010
   7       1.0123860000      0.2199464110
   8       0.4067730000      0.4884136321
   9       0.1473310000      0.2953713113
  10       0.0589320000      0.0429553902
 D 10 
   1     249.3497000000      0.0019111600
   2      74.6383700000      0.0177249500
   3      28.3764100000      0.0705638099
   4      11.9489300000      0.2290610097
   5       5.3176460000      0.4393851094
   6       2.3644170000     -0.2673990797
   7       1.0123860000     -0.6259062392
   8       0.4067730000      0.1221133998
   9       0.1473310000      0.5368362893
  10       0.0589320000      0.1975005497
 F 6 
   1      15.4333000000      0.0368206299
   2       6.1172000000      0.2459141793
   3       2.4246000000      0.5011268786
   4       0.9610000000      0.3585064790
   5       0.3809000000      0.1472806196
   6       0.1510000000      0.0256474799
 F 6 
   1      15.4333000000     -0.0620033603
   2       6.1172000000     -0.5287666929
   3       2.4246000000     -0.2907838616
   4       0.9610000000      0.5212415728
   5       0.3809000000      0.3753220521
   6       0.1510000000      0.1065979806
 G 4 
   1       8.7286000000      0.1690384791
   2       3.4308000000      0.6065418469
   3       1.3485000000      0.3797989880
   4       0.5300000000      0.1036775695
  end;

 # Basis set for element : Se
 NewGTO Se
 S 20 
   1  15378932.5999999996      0.0001334000
   2  1954263.9700000000      0.0004439400
   3  379640.6000000000      0.0013127500
   4   93606.4895000000      0.0035598200
   5   27183.3190000000      0.0094252900
   6    8900.6248300000      0.0249605899
   7    3196.4747300000      0.0652118297
   8    1233.7752100000      0.1568651194
   9     503.4591590000      0.3055559788
  10     214.5987720000      0.3814771885
  11      94.0903310000      0.1984466692
  12      40.3524084000      0.0167580599
  13      18.4102151000      0.0015085900
  14       8.3955108500     -0.0010891700
  15       3.7475099500      0.0006664500
  16       1.6293192600     -0.0003856700
  17       0.6415915500      0.0002320200
  18       0.2789203800     -0.0001327100
  19       0.1120174900      0.0000529900
  20       0.0448069900     -0.0000092000
 S 20 
   1  15378932.5999999996     -0.0000428500
   2  1954263.9700000000     -0.0001427500
   3  379640.6000000000     -0.0004229000
   4   93606.4895000000     -0.0011512100
   5   27183.3190000000     -0.0030687700
   6    8900.6248300000     -0.0082421599
   7    3196.4747300000     -0.0221427099
   8    1233.7752100000     -0.0567430396
   9     503.4591590000     -0.1268132992
  10     214.5987720000     -0.2113817486
  11      94.0903310000     -0.1375811391
  12      40.3524084000      0.3473067377
  13      18.4102151000      0.6374904458
  14       8.3955108500      0.1961151687
  15       3.7475099500      0.0071494700
  16       1.6293192600      0.0020721900
  17       0.6415915500     -0.0001816900
  18       0.2789203800      0.0006804000
  19       0.1120174900      0.0002818800
  20       0.0448069900      0.0000485300
 S 20 
   1  15378932.5999999996      0.0000168900
   2  1954263.9700000000      0.0000562700
   3  379640.6000000000      0.0001667600
   4   93606.4895000000      0.0004541400
   5   27183.3190000000      0.0012118000
   6    8900.6248300000      0.0032600300
   7    3196.4747300000      0.0087915900
   8    1233.7752100000      0.0227118500
   9     503.4591590000      0.0517227800
  10     214.5987720000      0.0897834199
  11      94.0903310000      0.0626941499
  12      40.3524084000     -0.1984690398
  13      18.4102151000     -0.5365347995
  14       8.3955108500     -0.1060836599
  15       3.7475099500      0.7395202493
  16       1.6293192600      0.5061155595
  17       0.6415915500      0.0157278100
  18       0.2789203800      0.0211140900
  19       0.1120174900      0.0031657100
  20       0.0448069900      0.0012003800
 S 20 
   1  15378932.5999999996     -0.0000052400
   2  1954263.9700000000     -0.0000174600
   3  379640.6000000000     -0.0000517600
   4   93606.4895000000     -0.0001409500
   5   27183.3190000000     -0.0003762100
   6    8900.6248300000     -0.0010121000
   7    3196.4747300000     -0.0027317500
   8    1233.7752100000     -0.0070620600
   9     503.4591590000     -0.0161369400
  10     214.5987720000     -0.0281528999
  11      94.0903310000     -0.0199427700
  12      40.3524084000      0.0653079398
  13      18.4102151000      0.1866783796
  14       8.3955108500      0.0354627099
  15       3.7475099500     -0.3411660192
  16       1.6293192600     -0.4414863990
  17       0.6415915500      0.2202745295
  18       0.2789203800      0.7306425483
  19       0.1120174900      0.3077878193
  20       0.0448069900      0.0085374900
 S 20 
   1  15378932.5999999996      0.0000048600
   2  1954263.9700000000      0.0000163700
   3  379640.6000000000      0.0000473100
   4   93606.4895000000      0.0001365200
   5   27183.3190000000      0.0003259200
   6    8900.6248300000      0.0010644800
   7    3196.4747300000      0.0021147500
   8    1233.7752100000      0.0092318800
   9     503.4591590000      0.0090091100
  10     214.5987720000      0.0332185699
  11      94.0903310000      0.0092277400
  12      40.3524084000     -0.0425099299
  13      18.4102151000     -0.2122362594
  14       8.3955108500      0.0213637199
  15       3.7475099500      0.2715316493
  16       1.6293192600      0.7115373980
  17       0.6415915500     -1.0981705070
  18       0.2789203800     -0.8688003776
  19       0.1120174900      1.2464513766
  20       0.0448069900      0.2852642892
 S 20 
   1  15378932.5999999996     -0.0000066500
   2  1954263.9700000000     -0.0000205700
   3  379640.6000000000     -0.0000724200
   4   93606.4895000000     -0.0001245600
   5   27183.3190000000     -0.0006992800
   6    8900.6248300000     -0.0001043100
   7    3196.4747300000     -0.0075491900
   8    1233.7752100000      0.0164844900
   9     503.4591590000     -0.0800215798
  10     214.5987720000      0.0209696300
  11      94.0903310000     -0.1059056798
  12      40.3524084000      0.2543532495
  13      18.4102151000      0.0653380099
  14       8.3955108500      0.2234480795
  15       3.7475099500     -0.8515261082
  16       1.6293192600     -0.7549058184
  17       0.6415915500      3.6906889623
  18       0.2789203800     -3.4326587828
  19       0.1120174900      0.3954868192
  20       0.0448069900      0.8696904382
 P 17 
   1  143787.9870000000      0.0000438700
   2   22177.9579000000      0.0002341200
   3    5417.0521100000      0.0011395000
   4    1717.3427700000      0.0051036000
   5     640.1680710000      0.0200978199
   6     265.4421210000      0.0662424097
   7     118.6091690000      0.1715184091
   8      55.7211799000      0.3204143384
   9      27.1086699000      0.3714738081
  10      13.4156096000      0.2006667190
  11       6.4447310200      0.0338313098
  12       3.0526007200      0.0013699800
  13       1.4224606200      0.0005176500
  14       0.5309172200     -0.0000770200
  15       0.2095028200      0.0000023400
  16       0.0785990400     -0.0000157000
  17       0.0314396100      0.0000037300
 P 17 
   1  143787.9870000000     -0.0000174600
   2   22177.9579000000     -0.0000932300
   3    5417.0521100000     -0.0004552900
   4    1717.3427700000     -0.0020455300
   5     640.1680710000     -0.0081504200
   6     265.4421210000     -0.0273946700
   7     118.6091690000     -0.0738833800
   8      55.7211799000     -0.1450003899
   9      27.1086699000     -0.1760046399
  10      13.4156096000      0.0019223800
  11       6.4447310200      0.3630425798
  12       3.0526007200      0.5026005497
  13       1.4224606200      0.2356755199
  14       0.5309172200      0.0184743800
  15       0.2095028200     -0.0025018700
  16       0.0785990400      0.0002164700
  17       0.0314396100     -0.0002403400
 P 17 
   1  143787.9870000000      0.0000041600
   2   22177.9579000000      0.0000221700
   3    5417.0521100000      0.0001087700
   4    1717.3427700000      0.0004859100
   5     640.1680710000      0.0019528300
   6     265.4421210000      0.0065271000
   7     118.6091690000      0.0178583000
   8      55.7211799000      0.0348438599
   9      27.1086699000      0.0435580899
  10      13.4156096000     -0.0066371700
  11       6.4447310200     -0.1040411897
  12       3.0526007200     -0.1705446796
  13       1.4224606200     -0.0527924199
  14       0.5309172200      0.3540454591
  15       0.2095028200      0.5455976386
  16       0.0785990400      0.2464488194
  17       0.0314396100      0.0287307699
 P 17 
   1  143787.9870000000     -0.0000037900
   2   22177.9579000000     -0.0000202500
   3    5417.0521100000     -0.0000986800
   4    1717.3427700000     -0.0004449500
   5     640.1680710000     -0.0017690200
   6     265.4421210000     -0.0059850800
   7     118.6091690000     -0.0161604799
   8      55.7211799000     -0.0321314099
   9      27.1086699000     -0.0388343298
  10      13.4156096000      0.0040976900
  11       6.4447310200      0.1027056796
  12       3.0526007200      0.1479946594
  13       1.4224606200      0.0916032396
  14       0.5309172200     -0.6457900772
  15       0.2095028200     -0.3047938487
  16       0.0785990400      0.7443693368
  17       0.0314396100      0.3803063283
 P 17 
   1  143787.9870000000      0.0000055500
   2   22177.9579000000      0.0000283700
   3    5417.0521100000      0.0001505200
   4    1717.3427700000      0.0006038200
   5     640.1680710000      0.0027476900
   6     265.4421210000      0.0079958300
   7     118.6091690000      0.0256812100
   8      55.7211799000      0.0403250499
   9      27.1086699000      0.0726836099
  10      13.4156096000     -0.0400497499
  11       6.4447310200     -0.0927272698
  12       3.0526007200     -0.3547002293
  13       1.4224606200      0.0659205399
  14       0.5309172200      1.3956049174
  15       0.2095028200     -1.3892391674
  16       0.0785990400     -0.1866128496
  17       0.0314396100      0.8636213584
 D 11 
   1     503.4591590000      0.0007198700
   2     214.5987720000      0.0025122300
   3      94.0903310000      0.0149394599
   4      40.3524084000      0.0561371297
   5      18.4102151000      0.1559031991
   6       8.3955108500      0.3069174683
   7       3.7475099500      0.3831917879
   8       1.6293192600      0.2927991284
   9       0.6415915500      0.0905204295
  10       0.2566366200      0.0004461100
  11       0.1026546500      0.0017686600
 D 11 
   1     503.4591590000     -0.0002002600
   2     214.5987720000     -0.0007583600
   3      94.0903310000     -0.0042026700
   4      40.3524084000     -0.0165291900
   5      18.4102151000     -0.0444959800
   6       8.3955108500     -0.0937891599
   7       3.7475099500     -0.1088980599
   8       1.6293192600     -0.1007123699
   9       0.6415915500      0.3874256496
  10       0.2566366200      0.6095026894
  11       0.1026546500      0.1618579698
 D 11 
   1     503.4591590000      0.0002561400
   2     214.5987720000      0.0006656200
   3      94.0903310000      0.0051283000
   4      40.3524084000      0.0160056700
   5      18.4102151000      0.0522849901
   6       8.3955108500      0.0982963002
   7       3.7475099500      0.1545055703
   8       1.6293192600      0.1267978402
   9       0.6415915500     -1.0554217820
  10       0.2566366200      0.3582744907
  11       0.1026546500      0.6766095113
 F 4 
   1       1.1928400000      0.1040642200
   2       0.4771360000      0.6746102203
   3       0.1908540000      0.3393981302
   4       0.0763416000      0.0365920800
 F 4 
   1       1.1928400000     -0.3745380412
   2       0.4771360000     -0.6466946021
   3       0.1908540000      1.0068953133
   4       0.0763416000      0.0804573103
 G 2 
   1       0.5964200000      0.7614694129
   2       0.2385670000      0.3452849513
  end;

---------------------------------
AUXILIARY/J BASIS SET INFORMATION
---------------------------------
There are 5 groups of distinct atoms

 Group   1 Type Cu  : 23s20p18d17f13g5h contracted to 23s20p18d17f13g5h pattern {11111111111111111111111/11111111111111111111/111111111111111111/11111111111111111/1111111111111/11111}
 Group   2 Type Se  : 22s20p18d18f14g6h contracted to 22s20p18d18f14g6h pattern {1111111111111111111111/11111111111111111111/111111111111111111/111111111111111111/11111111111111/111111}
 Group   3 Type C   : 16s14p13d4f contracted to 16s14p13d4f pattern {1111111111111111/11111111111111/1111111111111/1111}
 Group   4 Type C   : 17s14p13d4f contracted to 17s14p13d4f pattern {11111111111111111/11111111111111/1111111111111/1111}
 Group   5 Type H   : 12s5p4d3f contracted to 12s5p4d3f pattern {111111111111/11111/1111/111}

Atom   0Cu   basis set group =>   1
Atom   1Se   basis set group =>   2
Atom   2C    basis set group =>   3
Atom   3Se   basis set group =>   2
Atom   4C    basis set group =>   4
Atom   5Se   basis set group =>   2
Atom   6C    basis set group =>   4
Atom   7Se   basis set group =>   2
Atom   8C    basis set group =>   4
Atom   9C    basis set group =>   4
Atom  10C    basis set group =>   4
Atom  11C    basis set group =>   4
Atom  12H    basis set group =>   5
Atom  13C    basis set group =>   4
Atom  14H    basis set group =>   5
Atom  15H    basis set group =>   5
Atom  16H    basis set group =>   5
Atom  17C    basis set group =>   4
Atom  18C    basis set group =>   4
Atom  19C    basis set group =>   4
Atom  20H    basis set group =>   5
Atom  21C    basis set group =>   4
Atom  22H    basis set group =>   5
Atom  23H    basis set group =>   5
Atom  24H    basis set group =>   5

-------------------------------------
AUXILIARY/J BASIS SET IN INPUT FORMAT
-------------------------------------

 # Auxiliary/J basis set for element : H 
 NewAuxJGTO H 
 S 1 
   1      35.9414656527      1.0000000000
 S 1 
   1      19.9674809182      1.0000000000
 S 1 
   1      11.0930449545      1.0000000000
 S 1 
   1       6.1628027525      1.0000000000
 S 1 
   1       3.4237793070      1.0000000000
 S 1 
   1       1.9020996150      1.0000000000
 S 1 
   1       1.0567220083      1.0000000000
 S 1 
   1       0.5870677824      1.0000000000
 S 1 
   1       0.3261487680      1.0000000000
 S 1 
   1       0.1811937600      1.0000000000
 S 1 
   1       0.1006632000      1.0000000000
 S 1 
   1       0.0559240000      1.0000000000
 P 1 
   1       2.0286240000      1.0000000000
 P 1 
   1       1.0143120000      1.0000000000
 P 1 
   1       0.5071560000      1.0000000000
 P 1 
   1       0.2535780000      1.0000000000
 P 1 
   1       0.1267890000      1.0000000000
 D 1 
   1       2.1046197920      1.0000000000
 D 1 
   1       0.9566453600      1.0000000000
 D 1 
   1       0.4348388000      1.0000000000
 D 1 
   1       0.1976540000      1.0000000000
 F 1 
   1       1.8869562800      1.0000000000
 F 1 
   1       0.8577074000      1.0000000000
 F 1 
   1       0.3898670000      1.0000000000
  end;

 # Auxiliary/J basis set for element : Cu
 NewAuxJGTO Cu
 S 1 
   1   12815.8936556437      1.0000000000
 S 1 
   1    7119.9409198021      1.0000000000
 S 1 
   1    3955.5227332234      1.0000000000
 S 1 
   1    2197.5126295685      1.0000000000
 S 1 
   1    1220.8403497603      1.0000000000
 S 1 
   1     678.2446387557      1.0000000000
 S 1 
   1     376.8025770865      1.0000000000
 S 1 
   1     209.3347650481      1.0000000000
 S 1 
   1     116.2970916934      1.0000000000
 S 1 
   1      64.6094953852      1.0000000000
 S 1 
   1      35.8941641029      1.0000000000
 S 1 
   1      19.9412022794      1.0000000000
 S 1 
   1      11.0784457108      1.0000000000
 S 1 
   1       6.1546920615      1.0000000000
 S 1 
   1       3.4192733675      1.0000000000
 S 1 
   1       1.8995963153      1.0000000000
 S 1 
   1       1.0553312863      1.0000000000
 S 1 
   1       0.5862951590      1.0000000000
 S 1 
   1       0.3257195328      1.0000000000
 S 1 
   1       0.1809552960      1.0000000000
 S 1 
   1       0.1005307200      1.0000000000
 S 1 
   1       0.0558504000      1.0000000000
 S 1 
   1       0.0310280000      1.0000000000
 P 1 
   1    3281.6792962385      1.0000000000
 P 1 
   1    1823.1551645769      1.0000000000
 P 1 
   1    1012.8639803205      1.0000000000
 P 1 
   1     562.7022112892      1.0000000000
 P 1 
   1     312.6123396051      1.0000000000
 P 1 
   1     173.6735220028      1.0000000000
 P 1 
   1      96.4852900016      1.0000000000
 P 1 
   1      53.6029388898      1.0000000000
 P 1 
   1      29.7794104943      1.0000000000
 P 1 
   1      16.5441169413      1.0000000000
 P 1 
   1       9.1911760785      1.0000000000
 P 1 
   1       5.1062089325      1.0000000000
 P 1 
   1       2.8367827403      1.0000000000
 P 1 
   1       1.5759904113      1.0000000000
 P 1 
   1       0.8755502285      1.0000000000
 P 1 
   1       0.4864167936      1.0000000000
 P 1 
   1       0.2702315520      1.0000000000
 P 1 
   1       0.1501286400      1.0000000000
 P 1 
   1       0.0834048000      1.0000000000
 P 1 
   1       0.0463360000      1.0000000000
 D 1 
   1    1347.4833218853      1.0000000000
 D 1 
   1     748.6018454918      1.0000000000
 D 1 
   1     415.8899141621      1.0000000000
 D 1 
   1     231.0499523123      1.0000000000
 D 1 
   1     128.3610846179      1.0000000000
 D 1 
   1      71.3117136766      1.0000000000
 D 1 
   1      39.6176187092      1.0000000000
 D 1 
   1      22.0097881718      1.0000000000
 D 1 
   1      12.2276600954      1.0000000000
 D 1 
   1       6.7931444975      1.0000000000
 D 1 
   1       3.7739691653      1.0000000000
 D 1 
   1       2.0966495363      1.0000000000
 D 1 
   1       1.1648052979      1.0000000000
 D 1 
   1       0.6471140544      1.0000000000
 D 1 
   1       0.3595078080      1.0000000000
 D 1 
   1       0.1997265600      1.0000000000
 D 1 
   1       0.1109592000      1.0000000000
 D 1 
   1       0.0616440000      1.0000000000
 F 1 
   1    1089.9683674044      1.0000000000
 F 1 
   1     605.5379818913      1.0000000000
 F 1 
   1     336.4099899396      1.0000000000
 F 1 
   1     186.8944388553      1.0000000000
 F 1 
   1     103.8302438085      1.0000000000
 F 1 
   1      57.6834687825      1.0000000000
 F 1 
   1      32.0463715458      1.0000000000
 F 1 
   1      17.8035397477      1.0000000000
 F 1 
   1       9.8908554154      1.0000000000
 F 1 
   1       5.4949196752      1.0000000000
 F 1 
   1       3.0527331529      1.0000000000
 F 1 
   1       1.6959628627      1.0000000000
 F 1 
   1       0.9422015904      1.0000000000
 F 1 
   1       0.5234453280      1.0000000000
 F 1 
   1       0.2908029600      1.0000000000
 F 1 
   1       0.1615572000      1.0000000000
 F 1 
   1       0.0897540000      1.0000000000
 G 1 
   1     136.3487739404      1.0000000000
 G 1 
   1      75.7493188558      1.0000000000
 G 1 
   1      42.0829549199      1.0000000000
 G 1 
   1      23.3794193999      1.0000000000
 G 1 
   1      12.9885663333      1.0000000000
 G 1 
   1       7.2158701852      1.0000000000
 G 1 
   1       4.0088167695      1.0000000000
 G 1 
   1       2.2271204275      1.0000000000
 G 1 
   1       1.2372891264      1.0000000000
 G 1 
   1       0.6873828480      1.0000000000
 G 1 
   1       0.3818793600      1.0000000000
 G 1 
   1       0.2121552000      1.0000000000
 G 1 
   1       0.1178640000      1.0000000000
 H 1 
   1       5.8747580812      1.0000000000
 H 1 
   1       2.5542426440      1.0000000000
 H 1 
   1       1.1105402800      1.0000000000
 H 1 
   1       0.4828436000      1.0000000000
 H 1 
   1       0.2099320000      1.0000000000
  end;

 # Auxiliary/J basis set for element : Se
 NewAuxJGTO Se
 S 1 
   1   14428.7846939293      1.0000000000
 S 1 
   1    8015.9914966274      1.0000000000
 S 1 
   1    4453.3286092374      1.0000000000
 S 1 
   1    2474.0714495763      1.0000000000
 S 1 
   1    1374.4841386535      1.0000000000
 S 1 
   1     763.6022992520      1.0000000000
 S 1 
   1     424.2234995844      1.0000000000
 S 1 
   1     235.6797219913      1.0000000000
 S 1 
   1     130.9331788841      1.0000000000
 S 1 
   1      72.7406549356      1.0000000000
 S 1 
   1      40.4114749642      1.0000000000
 S 1 
   1      22.4508194246      1.0000000000
 S 1 
   1      12.4726774581      1.0000000000
 S 1 
   1       6.9292652545      1.0000000000
 S 1 
   1       3.8495918081      1.0000000000
 S 1 
   1       2.1386621156      1.0000000000
 S 1 
   1       1.1881456198      1.0000000000
 S 1 
   1       0.6600808999      1.0000000000
 S 1 
   1       0.3667116110      1.0000000000
 S 1 
   1       0.2037286728      1.0000000000
 S 1 
   1       0.1131825960      1.0000000000
 S 1 
   1       0.0628792200      1.0000000000
 P 1 
   1    4453.3286092374      1.0000000000
 P 1 
   1    2474.0714495763      1.0000000000
 P 1 
   1    1374.4841386535      1.0000000000
 P 1 
   1     763.6022992520      1.0000000000
 P 1 
   1     424.2234995844      1.0000000000
 P 1 
   1     235.6797219913      1.0000000000
 P 1 
   1     130.9331788841      1.0000000000
 P 1 
   1      72.7406549356      1.0000000000
 P 1 
   1      40.4114749642      1.0000000000
 P 1 
   1      22.4508194246      1.0000000000
 P 1 
   1      12.4726774581      1.0000000000
 P 1 
   1       6.9292652545      1.0000000000
 P 1 
   1       3.8495918081      1.0000000000
 P 1 
   1       2.1386621156      1.0000000000
 P 1 
   1       1.1881456198      1.0000000000
 P 1 
   1       0.6600808999      1.0000000000
 P 1 
   1       0.3667116110      1.0000000000
 P 1 
   1       0.2037286728      1.0000000000
 P 1 
   1       0.1131825960      1.0000000000
 P 1 
   1       0.0628792200      1.0000000000
 D 1 
   1    1374.4841386535      1.0000000000
 D 1 
   1     763.6022992520      1.0000000000
 D 1 
   1     424.2234995844      1.0000000000
 D 1 
   1     235.6797219913      1.0000000000
 D 1 
   1     130.9331788841      1.0000000000
 D 1 
   1      72.7406549356      1.0000000000
 D 1 
   1      40.4114749642      1.0000000000
 D 1 
   1      22.4508194246      1.0000000000
 D 1 
   1      12.4726774581      1.0000000000
 D 1 
   1       6.9292652545      1.0000000000
 D 1 
   1       3.8495918081      1.0000000000
 D 1 
   1       2.1386621156      1.0000000000
 D 1 
   1       1.1881456198      1.0000000000
 D 1 
   1       0.6600808999      1.0000000000
 D 1 
   1       0.3667116110      1.0000000000
 D 1 
   1       0.2037286728      1.0000000000
 D 1 
   1       0.1131825960      1.0000000000
 D 1 
   1       0.0628792200      1.0000000000
 F 1 
   1    2356.0019286162      1.0000000000
 F 1 
   1    1308.8899603424      1.0000000000
 F 1 
   1     727.1610890791      1.0000000000
 F 1 
   1     403.9783828217      1.0000000000
 F 1 
   1     224.4324349010      1.0000000000
 F 1 
   1     124.6846860561      1.0000000000
 F 1 
   1      69.2692700312      1.0000000000
 F 1 
   1      38.4829277951      1.0000000000
 F 1 
   1      21.3794043306      1.0000000000
 F 1 
   1      11.8774468503      1.0000000000
 F 1 
   1       6.5985815835      1.0000000000
 F 1 
   1       3.6658786575      1.0000000000
 F 1 
   1       2.0365992542      1.0000000000
 F 1 
   1       1.1314440301      1.0000000000
 F 1 
   1       0.6285800167      1.0000000000
 F 1 
   1       0.3492111204      1.0000000000
 F 1 
   1       0.1940061780      1.0000000000
 F 1 
   1       0.1077812100      1.0000000000
 G 1 
   1     224.4324349010      1.0000000000
 G 1 
   1     124.6846860561      1.0000000000
 G 1 
   1      69.2692700312      1.0000000000
 G 1 
   1      38.4829277951      1.0000000000
 G 1 
   1      21.3794043306      1.0000000000
 G 1 
   1      11.8774468503      1.0000000000
 G 1 
   1       6.5985815835      1.0000000000
 G 1 
   1       3.6658786575      1.0000000000
 G 1 
   1       2.0365992542      1.0000000000
 G 1 
   1       1.1314440301      1.0000000000
 G 1 
   1       0.6285800167      1.0000000000
 G 1 
   1       0.3492111204      1.0000000000
 G 1 
   1       0.1940061780      1.0000000000
 G 1 
   1       0.1077812100      1.0000000000
 H 1 
   1       9.8272144554      1.0000000000
 H 1 
   1       4.2727019371      1.0000000000
 H 1 
   1       1.8576964944      1.0000000000
 H 1 
   1       0.8076941280      1.0000000000
 H 1 
   1       0.3511713600      1.0000000000
 H 1 
   1       0.1526832000      1.0000000000
  end;

 There are some elements with more than one basis set type. The most frequent
 definition will be printed and can be used in [BASIS]. The less frequent definitions
 must be pasted into the [COORDS] section after specification of the given atom
 # Auxiliary/J basis set for element : C 
 NewAuxJGTO C 
 S 1 
    1    556.1930524224      1.0000000000
 S 1 
    1    308.9961402347      1.0000000000
 S 1 
    1    171.6645223526      1.0000000000
 S 1 
    1     95.3691790848      1.0000000000
 S 1 
    1     52.9828772693      1.0000000000
 S 1 
    1     29.4349318163      1.0000000000
 S 1 
    1     16.3527398979      1.0000000000
 S 1 
    1      9.0848554989      1.0000000000
 S 1 
    1      5.0471419438      1.0000000000
 S 1 
    1      2.8039677466      1.0000000000
 S 1 
    1      1.5577598592      1.0000000000
 S 1 
    1      0.8654221440      1.0000000000
 S 1 
    1      0.4807900800      1.0000000000
 S 1 
    1      0.2671056000      1.0000000000
 S 1 
    1      0.1483920000      1.0000000000
 S 1 
    1      0.0824400000      1.0000000000
 S 1 
    1      0.0458000000      1.0000000000
 P 1 
    1     95.3691790848      1.0000000000
 P 1 
    1     52.9828772693      1.0000000000
 P 1 
    1     29.4349318163      1.0000000000
 P 1 
    1     16.3527398979      1.0000000000
 P 1 
    1      9.0848554989      1.0000000000
 P 1 
    1      5.0471419438      1.0000000000
 P 1 
    1      2.8039677466      1.0000000000
 P 1 
    1      1.5577598592      1.0000000000
 P 1 
    1      0.8654221440      1.0000000000
 P 1 
    1      0.4807900800      1.0000000000
 P 1 
    1      0.2671056000      1.0000000000
 P 1 
    1      0.1483920000      1.0000000000
 P 1 
    1      0.0824400000      1.0000000000
 P 1 
    1      0.0458000000      1.0000000000
 D 1 
    1     52.9828772693      1.0000000000
 D 1 
    1     29.4349318163      1.0000000000
 D 1 
    1     16.3527398979      1.0000000000
 D 1 
    1      9.0848554989      1.0000000000
 D 1 
    1      5.0471419438      1.0000000000
 D 1 
    1      2.8039677466      1.0000000000
 D 1 
    1      1.5577598592      1.0000000000
 D 1 
    1      0.8654221440      1.0000000000
 D 1 
    1      0.4807900800      1.0000000000
 D 1 
    1      0.2671056000      1.0000000000
 D 1 
    1      0.1483920000      1.0000000000
 D 1 
    1      0.0824400000      1.0000000000
 D 1 
    1      0.0458000000      1.0000000000
 F 1 
    1      1.1112572240      1.0000000000
 F 1 
    1      0.5051169200      1.0000000000
 F 1 
    1      0.2295986000      1.0000000000
 F 1 
    1      0.1043630000      1.0000000000
  end;

  # Auxiliary/J basis set for element : C 
  # Members: C 2 
  NewAuxJGTO
 S 1 
   1     556.1930524224      1.0000000000
 S 1 
   1     308.9961402347      1.0000000000
 S 1 
   1     171.6645223526      1.0000000000
 S 1 
   1      95.3691790848      1.0000000000
 S 1 
   1      52.9828772693      1.0000000000
 S 1 
   1      29.4349318163      1.0000000000
 S 1 
   1      16.3527398979      1.0000000000
 S 1 
   1       9.0848554989      1.0000000000
 S 1 
   1       5.0471419438      1.0000000000
 S 1 
   1       2.8039677466      1.0000000000
 S 1 
   1       1.5577598592      1.0000000000
 S 1 
   1       0.8654221440      1.0000000000
 S 1 
   1       0.4807900800      1.0000000000
 S 1 
   1       0.2671056000      1.0000000000
 S 1 
   1       0.1483920000      1.0000000000
 S 1 
   1       0.0458000000      1.0000000000
 P 1 
   1      95.3691790848      1.0000000000
 P 1 
   1      52.9828772693      1.0000000000
 P 1 
   1      29.4349318163      1.0000000000
 P 1 
   1      16.3527398979      1.0000000000
 P 1 
   1       9.0848554989      1.0000000000
 P 1 
   1       5.0471419438      1.0000000000
 P 1 
   1       2.8039677466      1.0000000000
 P 1 
   1       1.5577598592      1.0000000000
 P 1 
   1       0.8654221440      1.0000000000
 P 1 
   1       0.4807900800      1.0000000000
 P 1 
   1       0.2671056000      1.0000000000
 P 1 
   1       0.1483920000      1.0000000000
 P 1 
   1       0.0824400000      1.0000000000
 P 1 
   1       0.0458000000      1.0000000000
 D 1 
   1      52.9828772693      1.0000000000
 D 1 
   1      29.4349318163      1.0000000000
 D 1 
   1      16.3527398979      1.0000000000
 D 1 
   1       9.0848554989      1.0000000000
 D 1 
   1       5.0471419438      1.0000000000
 D 1 
   1       2.8039677466      1.0000000000
 D 1 
   1       1.5577598592      1.0000000000
 D 1 
   1       0.8654221440      1.0000000000
 D 1 
   1       0.4807900800      1.0000000000
 D 1 
   1       0.2671056000      1.0000000000
 D 1 
   1       0.1483920000      1.0000000000
 D 1 
   1       0.0824400000      1.0000000000
 D 1 
   1       0.0458000000      1.0000000000
 F 1 
   1       1.1112572240      1.0000000000
 F 1 
   1       0.5051169200      1.0000000000
 F 1 
   1       0.2295986000      1.0000000000
 F 1 
   1       0.1043630000      1.0000000000
---------------------------------
AUXILIARY/C BASIS SET INFORMATION
---------------------------------
There are 5 groups of distinct atoms

 Group   1 Type Cu  : 23s20p18d17f13g5h contracted to 23s20p18d17f13g5h pattern {11111111111111111111111/11111111111111111111/111111111111111111/11111111111111111/1111111111111/11111}
 Group   2 Type Se  : 22s20p18d18f14g6h contracted to 22s20p18d18f14g6h pattern {1111111111111111111111/11111111111111111111/111111111111111111/111111111111111111/11111111111111/111111}
 Group   3 Type C   : 16s14p13d4f contracted to 16s14p13d4f pattern {1111111111111111/11111111111111/1111111111111/1111}
 Group   4 Type C   : 17s14p13d4f contracted to 17s14p13d4f pattern {11111111111111111/11111111111111/1111111111111/1111}
 Group   5 Type H   : 12s5p4d3f contracted to 12s5p4d3f pattern {111111111111/11111/1111/111}

Atom   0Cu   basis set group =>   1
Atom   1Se   basis set group =>   2
Atom   2C    basis set group =>   3
Atom   3Se   basis set group =>   2
Atom   4C    basis set group =>   4
Atom   5Se   basis set group =>   2
Atom   6C    basis set group =>   4
Atom   7Se   basis set group =>   2
Atom   8C    basis set group =>   4
Atom   9C    basis set group =>   4
Atom  10C    basis set group =>   4
Atom  11C    basis set group =>   4
Atom  12H    basis set group =>   5
Atom  13C    basis set group =>   4
Atom  14H    basis set group =>   5
Atom  15H    basis set group =>   5
Atom  16H    basis set group =>   5
Atom  17C    basis set group =>   4
Atom  18C    basis set group =>   4
Atom  19C    basis set group =>   4
Atom  20H    basis set group =>   5
Atom  21C    basis set group =>   4
Atom  22H    basis set group =>   5
Atom  23H    basis set group =>   5
Atom  24H    basis set group =>   5

-------------------------------------
AUXILIARY/C BASIS SET IN INPUT FORMAT
-------------------------------------

 # Auxiliary/C basis set for element : H 
 NewAuxCGTO H 
 S 1 
   1      35.9414656527      1.0000000000
 S 1 
   1      19.9674809182      1.0000000000
 S 1 
   1      11.0930449545      1.0000000000
 S 1 
   1       6.1628027525      1.0000000000
 S 1 
   1       3.4237793070      1.0000000000
 S 1 
   1       1.9020996150      1.0000000000
 S 1 
   1       1.0567220083      1.0000000000
 S 1 
   1       0.5870677824      1.0000000000
 S 1 
   1       0.3261487680      1.0000000000
 S 1 
   1       0.1811937600      1.0000000000
 S 1 
   1       0.1006632000      1.0000000000
 S 1 
   1       0.0559240000      1.0000000000
 P 1 
   1       2.0286240000      1.0000000000
 P 1 
   1       1.0143120000      1.0000000000
 P 1 
   1       0.5071560000      1.0000000000
 P 1 
   1       0.2535780000      1.0000000000
 P 1 
   1       0.1267890000      1.0000000000
 D 1 
   1       2.1046197920      1.0000000000
 D 1 
   1       0.9566453600      1.0000000000
 D 1 
   1       0.4348388000      1.0000000000
 D 1 
   1       0.1976540000      1.0000000000
 F 1 
   1       1.8869562800      1.0000000000
 F 1 
   1       0.8577074000      1.0000000000
 F 1 
   1       0.3898670000      1.0000000000
  end;

 # Auxiliary/C basis set for element : Cu
 NewAuxCGTO Cu
 S 1 
   1   12815.8936556437      1.0000000000
 S 1 
   1    7119.9409198021      1.0000000000
 S 1 
   1    3955.5227332234      1.0000000000
 S 1 
   1    2197.5126295685      1.0000000000
 S 1 
   1    1220.8403497603      1.0000000000
 S 1 
   1     678.2446387557      1.0000000000
 S 1 
   1     376.8025770865      1.0000000000
 S 1 
   1     209.3347650481      1.0000000000
 S 1 
   1     116.2970916934      1.0000000000
 S 1 
   1      64.6094953852      1.0000000000
 S 1 
   1      35.8941641029      1.0000000000
 S 1 
   1      19.9412022794      1.0000000000
 S 1 
   1      11.0784457108      1.0000000000
 S 1 
   1       6.1546920615      1.0000000000
 S 1 
   1       3.4192733675      1.0000000000
 S 1 
   1       1.8995963153      1.0000000000
 S 1 
   1       1.0553312863      1.0000000000
 S 1 
   1       0.5862951590      1.0000000000
 S 1 
   1       0.3257195328      1.0000000000
 S 1 
   1       0.1809552960      1.0000000000
 S 1 
   1       0.1005307200      1.0000000000
 S 1 
   1       0.0558504000      1.0000000000
 S 1 
   1       0.0310280000      1.0000000000
 P 1 
   1    3281.6792962385      1.0000000000
 P 1 
   1    1823.1551645769      1.0000000000
 P 1 
   1    1012.8639803205      1.0000000000
 P 1 
   1     562.7022112892      1.0000000000
 P 1 
   1     312.6123396051      1.0000000000
 P 1 
   1     173.6735220028      1.0000000000
 P 1 
   1      96.4852900016      1.0000000000
 P 1 
   1      53.6029388898      1.0000000000
 P 1 
   1      29.7794104943      1.0000000000
 P 1 
   1      16.5441169413      1.0000000000
 P 1 
   1       9.1911760785      1.0000000000
 P 1 
   1       5.1062089325      1.0000000000
 P 1 
   1       2.8367827403      1.0000000000
 P 1 
   1       1.5759904113      1.0000000000
 P 1 
   1       0.8755502285      1.0000000000
 P 1 
   1       0.4864167936      1.0000000000
 P 1 
   1       0.2702315520      1.0000000000
 P 1 
   1       0.1501286400      1.0000000000
 P 1 
   1       0.0834048000      1.0000000000
 P 1 
   1       0.0463360000      1.0000000000
 D 1 
   1    1347.4833218853      1.0000000000
 D 1 
   1     748.6018454918      1.0000000000
 D 1 
   1     415.8899141621      1.0000000000
 D 1 
   1     231.0499523123      1.0000000000
 D 1 
   1     128.3610846179      1.0000000000
 D 1 
   1      71.3117136766      1.0000000000
 D 1 
   1      39.6176187092      1.0000000000
 D 1 
   1      22.0097881718      1.0000000000
 D 1 
   1      12.2276600954      1.0000000000
 D 1 
   1       6.7931444975      1.0000000000
 D 1 
   1       3.7739691653      1.0000000000
 D 1 
   1       2.0966495363      1.0000000000
 D 1 
   1       1.1648052979      1.0000000000
 D 1 
   1       0.6471140544      1.0000000000
 D 1 
   1       0.3595078080      1.0000000000
 D 1 
   1       0.1997265600      1.0000000000
 D 1 
   1       0.1109592000      1.0000000000
 D 1 
   1       0.0616440000      1.0000000000
 F 1 
   1    1089.9683674044      1.0000000000
 F 1 
   1     605.5379818913      1.0000000000
 F 1 
   1     336.4099899396      1.0000000000
 F 1 
   1     186.8944388553      1.0000000000
 F 1 
   1     103.8302438085      1.0000000000
 F 1 
   1      57.6834687825      1.0000000000
 F 1 
   1      32.0463715458      1.0000000000
 F 1 
   1      17.8035397477      1.0000000000
 F 1 
   1       9.8908554154      1.0000000000
 F 1 
   1       5.4949196752      1.0000000000
 F 1 
   1       3.0527331529      1.0000000000
 F 1 
   1       1.6959628627      1.0000000000
 F 1 
   1       0.9422015904      1.0000000000
 F 1 
   1       0.5234453280      1.0000000000
 F 1 
   1       0.2908029600      1.0000000000
 F 1 
   1       0.1615572000      1.0000000000
 F 1 
   1       0.0897540000      1.0000000000
 G 1 
   1     136.3487739404      1.0000000000
 G 1 
   1      75.7493188558      1.0000000000
 G 1 
   1      42.0829549199      1.0000000000
 G 1 
   1      23.3794193999      1.0000000000
 G 1 
   1      12.9885663333      1.0000000000
 G 1 
   1       7.2158701852      1.0000000000
 G 1 
   1       4.0088167695      1.0000000000
 G 1 
   1       2.2271204275      1.0000000000
 G 1 
   1       1.2372891264      1.0000000000
 G 1 
   1       0.6873828480      1.0000000000
 G 1 
   1       0.3818793600      1.0000000000
 G 1 
   1       0.2121552000      1.0000000000
 G 1 
   1       0.1178640000      1.0000000000
 H 1 
   1       5.8747580812      1.0000000000
 H 1 
   1       2.5542426440      1.0000000000
 H 1 
   1       1.1105402800      1.0000000000
 H 1 
   1       0.4828436000      1.0000000000
 H 1 
   1       0.2099320000      1.0000000000
  end;

 # Auxiliary/C basis set for element : Se
 NewAuxCGTO Se
 S 1 
   1   14428.7846939293      1.0000000000
 S 1 
   1    8015.9914966274      1.0000000000
 S 1 
   1    4453.3286092374      1.0000000000
 S 1 
   1    2474.0714495763      1.0000000000
 S 1 
   1    1374.4841386535      1.0000000000
 S 1 
   1     763.6022992520      1.0000000000
 S 1 
   1     424.2234995844      1.0000000000
 S 1 
   1     235.6797219913      1.0000000000
 S 1 
   1     130.9331788841      1.0000000000
 S 1 
   1      72.7406549356      1.0000000000
 S 1 
   1      40.4114749642      1.0000000000
 S 1 
   1      22.4508194246      1.0000000000
 S 1 
   1      12.4726774581      1.0000000000
 S 1 
   1       6.9292652545      1.0000000000
 S 1 
   1       3.8495918081      1.0000000000
 S 1 
   1       2.1386621156      1.0000000000
 S 1 
[...]
  X      -0.4996009    0.2682995   -0.8236591
  Y       0.2091993    0.9600524    0.1858359
  Z       0.8406156   -0.0794651   -0.5357711

Note: Tensor is right-handed


 Quadrupole tensor eigenvalues (in MHz;Q= 0.0029 I=  1.0)
  e**2qQ            =     0.212801 MHz 
  e**2qQ/(4I*(2I-1))=     0.053200 MHz 
  eta               =     0.089846
  NOTE: the diagonal representation of the SH term I*Q*I = e**2qQ/(4I(2I-1))*[-(1-eta),-(1+eta),2]

 RHO(0)=      0.476004074 a.u.**-3

 -----------------------------------------------------------
 Nucleus  16H : A:ISTP=    1 I=  0.5 P=533.5514 MHz/au**3
                Q:ISTP=    2 I=  1.0 Q=  0.0029 barn     
 -----------------------------------------------------------
 Solving for nuclear perturbation:
Forming RHS of the CP-SCF equations         ... 
Calc. nucleus orbit integrals (SHARK)       ... done

Forming final perturbed densities           ... done
Transforming perturbed density to AO basis  ... done

 Raw HFC matrix (all values in MHz): 
 -----------------------------------
                 1.8801              -0.3254              -0.1064
                -0.2870               0.8406               0.0232
                -0.1039               0.0195               1.0196

 A(FC)           1.2570               1.2570               1.2570
 A(SD)          -0.4918              -0.2386               0.7304
 A(ORB+DIA)     -0.0080              -0.0107              -0.0120    A(PC) =  -0.0102
 A(ORB)         -0.0079              -0.0105              -0.0122    A(PC) =  -0.0102
 A(DIA)         -0.0001              -0.0002               0.0002    A(PC) =  -0.0000
             ----------           ----------           ----------
 A(Tot)          0.7572               1.0078               1.9754    A(iso)=    1.2468
 Orientation: 
  X           0.2787872           -0.0979862           -0.9553410
  Y           0.9597347            0.0641155            0.2734933
  Z           0.0344536           -0.9931203            0.1119154

Notes:  (1) The A matrix conforms to the "SAI" spin Hamiltonian convention.
        (2) Tensor is right-handed.

 Raw EFG matrix (all values in a.u.**-3):
 -----------------------------------
             0.1666      -0.0779      -0.2041
            -0.0779      -0.1545       0.0437
            -0.2041       0.0437      -0.0120

 V(El)       0.6321       0.8841      -1.5162
 V(Nuc)     -0.7763      -1.0568       1.8331
         ----------   ----------   ----------
 V(Tot)     -0.1442      -0.1727       0.3169 
 Orientation: 
  X      -0.4996009    0.2682995    0.8236591
  Y       0.2091993    0.9600524   -0.1858359
  Z      -0.8406156    0.0794651   -0.5357711

Note: Tensor is right-handed


 Quadrupole tensor eigenvalues (in MHz;Q= 0.0029 I=  1.0)
  e**2qQ            =     0.212801 MHz 
  e**2qQ/(4I*(2I-1))=     0.053200 MHz 
  eta               =     0.089846
  NOTE: the diagonal representation of the SH term I*Q*I = e**2qQ/(4I(2I-1))*[-(1-eta),-(1+eta),2]

 RHO(0)=      0.476004074 a.u.**-3

 -----------------------------------------------------------
 Nucleus  20H : A:ISTP=    1 I=  0.5 P=533.5514 MHz/au**3
                Q:ISTP=    2 I=  1.0 Q=  0.0029 barn     
 -----------------------------------------------------------
 Solving for nuclear perturbation:
Forming RHS of the CP-SCF equations         ... 
Calc. nucleus orbit integrals (SHARK)       ... done

Forming final perturbed densities           ... done
Transforming perturbed density to AO basis  ... done

 Raw HFC matrix (all values in MHz): 
 -----------------------------------
                 4.4036              -1.0405              -0.9151
                -1.0126               1.3689               0.2762
                -0.8998               0.2582               2.6022

 A(FC)           2.8124               2.8124               2.8124
 A(SD)          -1.6907              -0.5357               2.2264
 A(ORB+DIA)     -0.0675              -0.0357               0.0406    A(PC) =  -0.0209
 A(ORB)         -0.0669              -0.0350               0.0401    A(PC) =  -0.0206
 A(DIA)         -0.0006              -0.0007               0.0005    A(PC) =  -0.0002
             ----------           ----------           ----------
 A(Tot)          1.0543               2.2411               5.0794    A(iso)=    2.7916
 Orientation: 
  X           0.2983373           -0.3393844           -0.8920835
  Y           0.9544060            0.1160644            0.2750241
  Z           0.0102003           -0.9334598            0.3585369

Notes:  (1) The A matrix conforms to the "SAI" spin Hamiltonian convention.
        (2) Tensor is right-handed.

 Raw EFG matrix (all values in a.u.**-3):
 -----------------------------------
            -0.1490      -0.0081      -0.0029
            -0.0081      -0.1734      -0.0063
            -0.0029      -0.0063       0.3224

 V(El)       0.0451       1.1713      -1.2163
 V(Nuc)     -0.1916      -1.3472       1.5388
         ----------   ----------   ----------
 V(Tot)     -0.1465      -0.1759       0.3225 
 Orientation: 
  X       0.9569034    0.2903475   -0.0058472
  Y      -0.2903998    0.9568231   -0.0125530
  Z       0.0019500    0.0137101    0.9999041

Note: Tensor is right-handed


 Quadrupole tensor eigenvalues (in MHz;Q= 0.0029 I=  1.0)
  e**2qQ            =     0.216537 MHz 
  e**2qQ/(4I*(2I-1))=     0.054134 MHz 
  eta               =     0.091108
  NOTE: the diagonal representation of the SH term I*Q*I = e**2qQ/(4I(2I-1))*[-(1-eta),-(1+eta),2]

 RHO(0)=      0.484122855 a.u.**-3

 -----------------------------------------------------------
 Nucleus  22H : A:ISTP=    1 I=  0.5 P=533.5514 MHz/au**3
                Q:ISTP=    2 I=  1.0 Q=  0.0029 barn     
 -----------------------------------------------------------
 Solving for nuclear perturbation:
Forming RHS of the CP-SCF equations         ... 
Calc. nucleus orbit integrals (SHARK)       ... done

Forming final perturbed densities           ... done
Transforming perturbed density to AO basis  ... done

 Raw HFC matrix (all values in MHz): 
 -----------------------------------
                 4.4172              -0.9068               0.9020
                -0.9926               1.4208              -0.2648
                 0.8919              -0.2174               2.6092

 A(FC)           2.8124               2.8124               2.8124
 A(SD)          -1.6874              -0.5391               2.2265
 A(ORB+DIA)      0.0233              -0.0208               0.0074    A(PC) =   0.0033
 A(ORB)          0.0239              -0.0201               0.0069    A(PC) =   0.0035
 A(DIA)         -0.0006              -0.0007               0.0005    A(PC) =  -0.0002
             ----------           ----------           ----------
 A(Tot)          1.1483               2.2525               5.0464    A(iso)=    2.8157
 Orientation: 
  X           0.2574021           -0.3568396            0.8980031
  Y           0.9657588            0.0637750           -0.2514812
  Z           0.0324683            0.9319862            0.3610368

Notes:  (1) The A matrix conforms to the "SAI" spin Hamiltonian convention.
        (2) Tensor is right-handed.

 Raw EFG matrix (all values in a.u.**-3):
 -----------------------------------
            -0.1490      -0.0081       0.0029
            -0.0081      -0.1734       0.0063
             0.0029       0.0063       0.3224

 V(El)       0.0451       1.1713      -1.2163
 V(Nuc)     -0.1916      -1.3472       1.5388
         ----------   ----------   ----------
 V(Tot)     -0.1465      -0.1759       0.3225 
 Orientation: 
  X       0.9569034    0.2903475    0.0058472
  Y      -0.2903998    0.9568231    0.0125530
  Z      -0.0019500   -0.0137101    0.9999041

Note: Tensor is right-handed


 Quadrupole tensor eigenvalues (in MHz;Q= 0.0029 I=  1.0)
  e**2qQ            =     0.216537 MHz 
  e**2qQ/(4I*(2I-1))=     0.054134 MHz 
  eta               =     0.091108
  NOTE: the diagonal representation of the SH term I*Q*I = e**2qQ/(4I(2I-1))*[-(1-eta),-(1+eta),2]

 RHO(0)=      0.484122855 a.u.**-3

 -----------------------------------------------------------
 Nucleus  23H : A:ISTP=    1 I=  0.5 P=533.5514 MHz/au**3
                Q:ISTP=    2 I=  1.0 Q=  0.0029 barn     
 -----------------------------------------------------------
 Solving for nuclear perturbation:
Forming RHS of the CP-SCF equations         ... 
Calc. nucleus orbit integrals (SHARK)       ... done

Forming final perturbed densities           ... done
Transforming perturbed density to AO basis  ... done

 Raw HFC matrix (all values in MHz): 
 -----------------------------------
                 1.8546              -0.3507              -0.0996
                -0.3225               0.8691               0.0228
                -0.1081               0.0276               1.0299

 A(FC)           1.2636               1.2636               1.2636
 A(SD)          -0.4861              -0.2333               0.7194
 A(ORB+DIA)     -0.0124              -0.0123              -0.0124    A(PC) =  -0.0124
 A(ORB)         -0.0123              -0.0121              -0.0126    A(PC) =  -0.0124
 A(DIA)         -0.0001              -0.0002               0.0002    A(PC) =  -0.0000
             ----------           ----------           ----------
 A(Tot)          0.7650               1.0180               1.9706    A(iso)=    1.2512
 Orientation: 
  X           0.3072286           -0.0904513           -0.9473274
  Y           0.9509077            0.0681099            0.3018866
  Z           0.0372163           -0.9935691            0.1069361

Notes:  (1) The A matrix conforms to the "SAI" spin Hamiltonian convention.
        (2) Tensor is right-handed.

 Raw EFG matrix (all values in a.u.**-3):
 -----------------------------------
             0.1558      -0.1008      -0.2029
            -0.1008      -0.1450       0.0618
            -0.2029       0.0618      -0.0107

 V(El)       0.6340       0.8900      -1.5241
 V(Nuc)     -0.7800      -1.0657       1.8458
         ----------   ----------   ----------
 V(Tot)     -0.1460      -0.1757       0.3217 
 Orientation: 
  X      -0.5156608    0.2891194    0.8065382
  Y       0.1529220    0.9572877   -0.2453877
  Z      -0.8430355   -0.0031994   -0.5378484

Note: Tensor is right-handed


 Quadrupole tensor eigenvalues (in MHz;Q= 0.0029 I=  1.0)
  e**2qQ            =     0.216023 MHz 
  e**2qQ/(4I*(2I-1))=     0.054006 MHz 
  eta               =     0.092162
  NOTE: the diagonal representation of the SH term I*Q*I = e**2qQ/(4I(2I-1))*[-(1-eta),-(1+eta),2]

 RHO(0)=      0.477675866 a.u.**-3

 -----------------------------------------------------------
 Nucleus  24H : A:ISTP=    1 I=  0.5 P=533.5514 MHz/au**3
                Q:ISTP=    2 I=  1.0 Q=  0.0029 barn     
 -----------------------------------------------------------
 Solving for nuclear perturbation:
Forming RHS of the CP-SCF equations         ... 
Calc. nucleus orbit integrals (SHARK)       ... done

Forming final perturbed densities           ... done
Transforming perturbed density to AO basis  ... done

 Raw HFC matrix (all values in MHz): 
 -----------------------------------
                 1.8735              -0.3118               0.1231
                -0.3226               0.8726              -0.0166
                 0.1229              -0.0406               1.0548

 A(FC)           1.2636               1.2636               1.2636
 A(SD)          -0.4852              -0.2344               0.7197
 A(ORB+DIA)      0.0025               0.0082              -0.0006    A(PC) =   0.0034
 A(ORB)          0.0025               0.0084              -0.0008    A(PC) =   0.0034
 A(DIA)         -0.0001              -0.0002               0.0002    A(PC) =  -0.0000
             ----------           ----------           ----------
 A(Tot)          0.7808               1.0374               1.9827    A(iso)=    1.2669
 Orientation: 
  X           0.2818267           -0.1079640            0.9533717
  Y           0.9571277            0.1009552           -0.2715044
  Z          -0.0669351            0.9890156            0.1317872

Notes:  (1) The A matrix conforms to the "SAI" spin Hamiltonian convention.
        (2) Tensor is right-handed.

 Raw EFG matrix (all values in a.u.**-3):
 -----------------------------------
             0.1558      -0.1008       0.2029
            -0.1008      -0.1450      -0.0618
             0.2029      -0.0618      -0.0107

 V(El)       0.6340       0.8900      -1.5241
 V(Nuc)     -0.7800      -1.0657       1.8458
         ----------   ----------   ----------
 V(Tot)     -0.1460      -0.1757       0.3217 
 Orientation: 
  X      -0.5156608    0.2891194   -0.8065382
  Y       0.1529220    0.9572877    0.2453877
  Z       0.8430355    0.0031994   -0.5378484

Note: Tensor is right-handed


 Quadrupole tensor eigenvalues (in MHz;Q= 0.0029 I=  1.0)
  e**2qQ            =     0.216023 MHz 
  e**2qQ/(4I*(2I-1))=     0.054006 MHz 
  eta               =     0.092162
  NOTE: the diagonal representation of the SH term I*Q*I = e**2qQ/(4I(2I-1))*[-(1-eta),-(1+eta),2]

 RHO(0)=      0.477675866 a.u.**-3

 -----------------------------------------------------------
 Nucleus   0Cu: A:ISTP=   63 I=  1.5 P=141.6005 MHz/au**3
                Q:ISTP=   63 I=  1.5 Q= -0.2200 barn     
 -----------------------------------------------------------
 Solving for nuclear perturbation:
Forming RHS of the CP-SCF equations         ... 
Calc. nucleus orbit integrals (SHARK)       ... done

Forming final perturbed densities           ... done
Transforming perturbed density to AO basis  ... done

 Raw HFC matrix (all values in MHz): 
 -----------------------------------
               -70.1570            -108.5501              -0.5342
              -111.8381            -376.7033              -1.5593
                -5.8283               0.4476             -40.7488

 A(FC)        -197.9074            -197.9074            -197.9074
 A(SD)         138.4571             139.3001            -277.7572
 A(ORB+DIA)     25.1585              17.4947              63.4598    A(PC) =  35.3710
 A(ORB)         25.1583              17.4955              63.4620    A(PC) =  35.3719
 A(DIA)          0.0002              -0.0008              -0.0022    A(PC) =  -0.0009
             ----------           ----------           ----------
 A(Tot)        -34.2918             -41.1126            -412.2048    A(iso)= -162.5364
 Orientation: 
  X           0.9506564           -0.0654709            0.3032590
  Y          -0.3022184            0.0254925            0.9528978
  Z          -0.0701179           -0.9975288            0.0044481

Notes:  (1) The A matrix conforms to the "SAI" spin Hamiltonian convention.
        (2) Tensor is right-handed.

 Raw EFG matrix (all values in a.u.**-3):
 -----------------------------------
             0.4964      -0.7369       0.0000
            -0.7369      -1.7171      -0.0000
             0.0000      -0.0000       1.2207

 V(El)      -0.5817       0.8320      -0.2503
 V(Nuc)      1.3010       0.3887      -1.6897
         ----------   ----------   ----------
 V(Tot)      0.7193       1.2207      -1.9400 
 Orientation: 
  X      -0.9571772    0.0000000    0.2895027
  Y       0.2895027   -0.0000000    0.9571772
  Z       0.0000000    1.0000000   -0.0000000

Note: Tensor is right-handed


 Quadrupole tensor eigenvalues (in MHz;Q=-0.2200 I=  1.5)
  e**2qQ            =   100.284930 MHz 
  e**2qQ/(4I*(2I-1))=     8.357078 MHz 
  eta               =     0.258432
  NOTE: the diagonal representation of the SH term I*Q*I = e**2qQ/(4I(2I-1))*[-(1-eta),-(1+eta),2]

 RHO(0)=  37592.923625529 a.u.**-3


--------------------------------------------------------------------------------
----------------------------------------------------------------------------
                           ORCA EULER ANGLE PROGRAM
----------------------------------------------------------------------------

Only g-tensor available        -->  using g-tensor as reference tensor

Reference tensor               ...  g

g-tensor ordering              ...  |g_min> --> |gx>
                                    |g_mid> --> |gy>
                                    |g_max> --> |gz>

A- and EFG-tensor ordering     ...  the axes |Ax>, |Qx>, |Ay>, etc. are assigned
                                    such that the Euler rotation is minimal. You
                                    can find the respective eigenvalues as Ax,
                                    EFGx, Ay, etc. in the tables below.
                                    The relation of |Ax>, |Ay>,  etc. to Amin, Amid, etc.
                                    (as printed in the ORCA EPR/NMR CALCULATION Output)
                                    is obtained in the detailed printout.

Euler rotation around          ...  z - y - z
   First rotation              -->  by alpha around z
   Second rotation             -->  by beta around y'
   Third rotation              -->  by gamma around z''
   Positive / Negative angle   -->  clockwise / counterclockwise rotation

Plot EFG-tensors                    (-)
Plot HFC-tensors                    (-)
Detailed Printout                   (-)

-------------------------------------------------------------------------
          Euler rotation of hyperfine tensor to g-tensor
-------------------------------------------------------------------------

-------------------------------------------------------------------
 Atom  |   Alpha    Beta    Gamma   |   Ax       Ay       Az 
       |          [degrees]         |           [MHz]         
-------------------------------------------------------------------
 12H     -119.4     16.5    105.8       2.51     5.28     1.57
 14H       42.7     28.4    -13.6       5.33     2.41     1.47
 15H      -20.8     14.3     -9.7       1.03     1.99     0.77
 16H      -66.4      9.1     23.2       1.01     1.98     0.76
 20H       12.3     10.9     19.9       5.08     2.24     1.05
 22H      -33.7      8.1     18.0       2.25     5.05     1.15
 23H      -71.4     10.6     28.6       1.02     1.97     0.77
 24H      -30.6     13.2      1.1       1.04     1.98     0.78
  0Cu     -60.1     11.3     19.3     -41.11   -34.29  -412.20
-------------------------------------------------------------------


-------------------------------------------------------------------------------
    Euler rotation of Electric Field Gradient (EFG) tensor to g-tensor
-------------------------------------------------------------------------------

-------------------------------------------------------------------
 Atom  |   Alpha    Beta    Gamma  |   EFGx     EFGy     EFGz
       |          [degrees]        |         [a.u.**-3]       
-------------------------------------------------------------------
 12H     -155.3     13.5    119.7      0.21    -0.09    -0.12
 14H      -13.1     26.0    -25.3      0.21    -0.09    -0.12
 15H       -1.1     13.3     -3.5     -0.14     0.32    -0.17
 16H      -17.2      7.6     38.1      0.32    -0.14    -0.17
 20H      -56.0     10.3     19.4      0.32    -0.15    -0.18
 22H      -49.7     11.3     12.7      0.32    -0.15    -0.18
 23H        5.7     10.9     14.9      0.32    -0.15    -0.18
 24H      -20.7     10.6     16.5     -0.15     0.32    -0.18
  0Cu     -52.6     10.8     15.7      1.22     0.72    -1.94
-------------------------------------------------------------------


Maximum memory used throughout the entire EPRNMR-calculation: 788.9 MB

Timings for individual modules:

Sum of individual times         ...    61721.619 sec (=1028.694 min)
GTO integral calculation        ...       62.378 sec (=   1.040 min)   0.1 %
Spin-Orbit-Coupling Matrices    ...      885.674 sec (=  14.761 min)   1.4 %
SCF iterations                  ...     2293.057 sec (=  38.218 min)   3.7 %
EPR/NMR calculation             ...    58480.511 sec (= 974.675 min)  94.7 %
                             ****ORCA TERMINATED NORMALLY****
TOTAL RUN TIME: 0 days 17 hours 14 minutes 0 seconds 651 msec
