
                                 *****************
                                 * O   R   C   A *
                                 *****************

                                            #,                                       
                                            ###                                      
                                            ####                                     
                                            #####                                    
                                            ######                                   
                                           ########,                                 
                                     ,,################,,,,,                         
                               ,,#################################,,                 
                          ,,##########################################,,             
                       ,#########################################, ''#####,          
                    ,#############################################,,   '####,        
                  ,##################################################,,,,####,       
                ,###########''''           ''''###############################       
              ,#####''   ,,,,##########,,,,          '''####'''          '####       
            ,##' ,,,,###########################,,,                        '##       
           ' ,,###''''                  '''############,,,                           
         ,,##''                                '''############,,,,        ,,,,,,###''
      ,#''                                            '''#######################'''  
     '                                                          ''''####''''         
             ,#######,   #######,   ,#######,      ##                                
            ,#'     '#,  ##    ##  ,#'     '#,    #''#        ######   ,####,        
            ##       ##  ##   ,#'  ##            #'  '#       #        #'  '#        
            ##       ##  #######   ##           ,######,      #####,   #    #        
            '#,     ,#'  ##    ##  '#,     ,#' ,#      #,         ##   #,  ,#        
             '#######'   ##     ##  '#######'  #'      '#     #####' # '####'        



                  #######################################################
                  #                        -***-                        #
                  #          Department of theory and spectroscopy      #
                  #    Directorship and core code : Frank Neese         #
                  #        Max Planck Institute fuer Kohlenforschung    #
                  #                Kaiser Wilhelm Platz 1               #
                  #                 D-45470 Muelheim/Ruhr               #
                  #                      Germany                        #
                  #                                                     #
                  #                  All rights reserved                #
                  #                        -***-                        #
                  #######################################################


                         Program Version 5.0.4 -  RELEASE  -


 With contributions from (in alphabetic order):
   Daniel Aravena         : Magnetic Suceptibility
   Michael Atanasov       : Ab Initio Ligand Field Theory (pilot matlab implementation)
   Alexander A. Auer      : GIAO ZORA, VPT2 properties, NMR spectrum
   Ute Becker             : Parallelization
   Giovanni Bistoni       : ED, misc. LED, open-shell LED, HFLD
   Martin Brehm           : Molecular dynamics
   Dmytro Bykov           : SCF Hessian
   Vijay G. Chilkuri      : MRCI spin determinant printing, contributions to CSF-ICE
   Dipayan Datta          : RHF DLPNO-CCSD density
   Achintya Kumar Dutta   : EOM-CC, STEOM-CC
   Dmitry Ganyushin       : Spin-Orbit,Spin-Spin,Magnetic field MRCI
   Miquel Garcia          : C-PCM and meta-GGA Hessian, CC/C-PCM, Gaussian charge scheme
   Yang Guo               : DLPNO-NEVPT2, F12-NEVPT2, CIM, IAO-localization
   Andreas Hansen         : Spin unrestricted coupled pair/coupled cluster methods
   Benjamin Helmich-Paris : MC-RPA, TRAH-SCF, COSX integrals
   Lee Huntington         : MR-EOM, pCC
   Robert Izsak           : Overlap fitted RIJCOSX, COSX-SCS-MP3, EOM
   Marcus Kettner         : VPT2
   Christian Kollmar      : KDIIS, OOCD, Brueckner-CCSD(T), CCSD density, CASPT2, CASPT2-K
   Simone Kossmann        : Meta GGA functionals, TD-DFT gradient, OOMP2, MP2 Hessian
   Martin Krupicka        : Initial AUTO-CI
   Lucas Lang             : DCDCAS
   Marvin Lechner         : AUTO-CI (C++ implementation), FIC-MRCC
   Dagmar Lenk            : GEPOL surface, SMD
   Dimitrios Liakos       : Extrapolation schemes; Compound Job, initial MDCI parallelization
   Dimitrios Manganas     : Further ROCIS development; embedding schemes
   Dimitrios Pantazis     : SARC Basis sets
   Anastasios Papadopoulos: AUTO-CI, single reference methods and gradients
   Taras Petrenko         : DFT Hessian,TD-DFT gradient, ASA, ECA, R-Raman, ABS, FL, XAS/XES, NRVS
   Peter Pinski           : DLPNO-MP2, DLPNO-MP2 Gradient
   Christoph Reimann      : Effective Core Potentials
   Marius Retegan         : Local ZFS, SOC
   Christoph Riplinger    : Optimizer, TS searches, QM/MM, DLPNO-CCSD(T), (RO)-DLPNO pert. Triples
   Tobias Risthaus        : Range-separated hybrids, TD-DFT gradient, RPA, STAB
   Michael Roemelt        : Original ROCIS implementation
   Masaaki Saitow         : Open-shell DLPNO-CCSD energy and density
   Barbara Sandhoefer     : DKH picture change effects
   Avijit Sen             : IP-ROCIS
   Kantharuban Sivalingam : CASSCF convergence, NEVPT2, FIC-MRCI
   Bernardo de Souza      : ESD, SOC TD-DFT
   Georgi Stoychev        : AutoAux, RI-MP2 NMR, DLPNO-MP2 response
   Willem Van den Heuvel  : Paramagnetic NMR
   Boris Wezisla          : Elementary symmetry handling
   Frank Wennmohs         : Technical directorship


 We gratefully acknowledge several colleagues who have allowed us to
 interface, adapt or use parts of their codes:
   Stefan Grimme, W. Hujo, H. Kruse, P. Pracht,  : VdW corrections, initial TS optimization,
                  C. Bannwarth, S. Ehlert          DFT functionals, gCP, sTDA/sTD-DF
   Ed Valeev, F. Pavosevic, A. Kumar             : LibInt (2-el integral package), F12 methods
   Garnet Chan, S. Sharma, J. Yang, R. Olivares  : DMRG
   Ulf Ekstrom                                   : XCFun DFT Library
   Mihaly Kallay                                 : mrcc  (arbitrary order and MRCC methods)
   Jiri Pittner, Ondrej Demel                    : Mk-CCSD
   Frank Weinhold                                : gennbo (NPA and NBO analysis)
   Christopher J. Cramer and Donald G. Truhlar   : smd solvation model
   Lars Goerigk                                  : TD-DFT with DH, B97 family of functionals
   V. Asgeirsson, H. Jonsson                     : NEB implementation
   FAccTs GmbH                                   : IRC, NEB, NEB-TS, DLPNO-Multilevel, CI-OPT
                                                   MM, QMMM, 2- and 3-layer-ONIOM, Crystal-QMMM,
                                                   LR-CPCM, SF, NACMEs, symmetry and pop. for TD-DFT,
                                                   nearIR, NL-DFT gradient (VV10), updates on ESD,
                                                   ML-optimized integration grids
   S Lehtola, MJT Oliveira, MAL Marques          : LibXC Library
   Liviu Ungur et al                             : ANISO software


 Your calculation uses the libint2 library for the computation of 2-el integrals
 For citations please refer to: http://libint.valeyev.net

 Your ORCA version has been built with support for libXC version: 5.1.0
 For citations please refer to: https://tddft.org/programs/libxc/

 This ORCA versions uses:
   CBLAS   interface :  Fast vector & matrix operations
   LAPACKE interface :  Fast linear algebra routines
   SCALAPACK package :  Parallel linear algebra routines
   Shared memory     :  Shared parallel matrices
   BLAS/LAPACK       :  OpenBLAS 0.3.15  USE64BITINT DYNAMIC_ARCH NO_AFFINITY Prescott SINGLE_THREADED
        Core in use  :  Prescott
   Copyright (c) 2011-2014, The OpenBLAS Project


XCFun DFT library Copyright 2009-2010 Ulf Ekstrom and contributors.
See http://admol.org/xcfun for more information.
This is free software; see the source code for copying conditions.
There is ABSOLUTELY NO WARRANTY; not even for MERCHANTABILITY or FITNESS FOR A PARTICULAR PURPOSE.
For details see the documentation.
Scientific users of this library should cite U. Ekstrom, L. Visscher, R. Bast, A. J. Thorvaldsen and K. Ruud;
J.Chem.Theor.Comp. 2010, DOI: 10.1021/ct100117s
XCFun Version 0.99 

================================================================================

----- Orbital basis set information -----
Your calculation utilizes the basis: ANO-RCC-DZP
   H, He:       P.-O. Widmark, P.-A. Malmqvist, and B. O. Roos, Theor. Chim. Acta 77, 291 (1990).
   s block:     B. O. Roos, V. Veryazov and P.-O. Widmark, Theor. Chem. Acc. 111, 345 (2004).
   p block:     B. O. Roos, R. Lindh, P.-A. Malmqvist, V. Veryazov, and P.-O. Widmark, J. Phys. Chem. A 108, 2851 (2004).
   d block:     B. O. Roos, R. Lindh, P.-A. Malmqvist, V. Veryazov, and P.-O. Widmark, J. Phys. Chem. A 109, 6575 (2005).
   actinides:   B. O. Roos, R. Lindh, P.-A. Malmqvist, V. Veryazov, and P.-O. Widmark, Chem. Phys. Letters 409, 295 (2005).
   lanthanides: B. O. Roos, R. Lindh, P.-A. Malmqvist, V. Veryazov, P.-O. Widmark and A. C. Borin, J. Phys. Chem. A 112, 11431 (2008).

The basis set includes element-specific modifications.

Your calculation utilizes the basis: ANO-RCC-TZP
   H, He:       P.-O. Widmark, P.-A. Malmqvist, and B. O. Roos, Theor. Chim. Acta 77, 291 (1990).
   s block:     B. O. Roos, V. Veryazov and P.-O. Widmark, Theor. Chem. Acc. 111, 345 (2004).
   p block:     B. O. Roos, R. Lindh, P.-A. Malmqvist, V. Veryazov, and P.-O. Widmark, J. Phys. Chem. A 108, 2851 (2004).
   d block:     B. O. Roos, R. Lindh, P.-A. Malmqvist, V. Veryazov, and P.-O. Widmark, J. Phys. Chem. A 109, 6575 (2005).
   actinides:   B. O. Roos, R. Lindh, P.-A. Malmqvist, V. Veryazov, and P.-O. Widmark, Chem. Phys. Letters 409, 295 (2005).
   lanthanides: B. O. Roos, R. Lindh, P.-A. Malmqvist, V. Veryazov, P.-O. Widmark and A. C. Borin, J. Phys. Chem. A 112, 11431 (2008).

----- AuxJ basis set information -----
Your calculation utilizes the AutoAux generation procedure.
  G. L. Stoychev, A. A. Auer, F. Neese, J. Chem. Theory Comput. 13, 554 (2017)

----- AuxC basis set information -----
Your calculation utilizes the AutoAux generation procedure.
  G. L. Stoychev, A. A. Auer, F. Neese, J. Chem. Theory Comput. 13, 554 (2017)

----- AuxJK basis set information -----
Your calculation utilizes the AutoAux generation procedure.
  G. L. Stoychev, A. A. Auer, F. Neese, J. Chem. Theory Comput. 13, 554 (2017)

================================================================================
                                        WARNINGS
                       Please study these warnings very carefully!
================================================================================


Removing linear dependencies from the Orbital basis set:
  S-ok PCD(Thresh=Auto)-ok done ( 1.547 sec)
  Dim=575 Nullspace=0 Removed 0 shells / 0 basis functions

Removing linear dependencies from the AuxJ basis set:
  V-ok PCD(Thresh=Auto)-ok done (97.277 sec)
  Dim=4792 Nullspace=2 Removed 2 shells / 2 basis functions

Removing linear dependencies from the AuxC basis set:
  V-ok PCD(Thresh=Auto)-ok done (99.643 sec)
  Dim=4792 Nullspace=2 Removed 2 shells / 2 basis functions

Removing linear dependencies from the AuxJK basis set:
  V-ok PCD(Thresh=Auto)-ok done (100.906 sec)
  Dim=4792 Nullspace=2 Removed 2 shells / 2 basis functions


WARNING: Found flag for RIJCOSX approximation but no HF exchange needed!
  ===> : RIJCOSX  will be disabled and Split-RI-J is turned on

WARNING: your system is open-shell and RHF/RKS was chosen
  ===> : WILL SWITCH to UHF/UKS


WARNING: Minnesota functionals are quite sensitive to the integration grid.
         see SE Wheeler, KN Houk, JCTC 2010, 6, 395,
             N Mardirossian, M Head-Gordon, JCTC 2016, 12, 4303.
         DEFGRID3 seems to be a minimum grid for reliable results with these functionals!
  ===> : Please increase the integration grid!


INFO   : the flag for use of the SHARK integral package has been found!

================================================================================
                                       INPUT FILE
================================================================================
NAME = input_5.inp
|  1> ! RIJCOSX nofrozencore ReducedPop printbasis
|  2> ! M06L ano-rcc-dzp autoaux
|  3> 
|  4> %maxcore 7500
|  5> %basis
|  6> PCDTrimBas overlap
|  7> PCDTrimAuxJ Coulomb
|  8> PCDTrimAuxJK Coulomb
|  9> PCDTrimAuxC Coulomb
| 10> PCDThresh -1
| 11> end
| 12> 
| 13> %basis
| 14> newgto Cu "ano-rcc-tzp" end
| 15> newgto Se "ano-rcc-tzp" end
| 16> end
| 17> 
| 18> %pal
| 19> nprocs 8
| 20> end
| 21> 
| 22> % sym SymThresh 1e-2 end
| 23> * xyz -2 2 
| 24> Cu -6.206009061484524e-05 -0.00010877918362174185 -0.00010895702989465416
| 25> Se 0.44375095164754613 -1.831422503271908 1.4370900588436184
| 26> C -0.877835331481457 -1.9285093126370947 2.4015214172525803
| 27> Se 2.119484877700648 -0.008670466994953241 -1.0601594165814683
| 28> C 1.9966644819625623 1.125505100458416 -2.2368763071429014
| 29> Se -2.1195682475814137 0.008524335922979456 1.0600130465955255
| 30> C -1.9966256848851738 -1.1254367794398041 2.2369459708005857
| 31> Se -0.4437579709676922 1.8314098824376805 -1.4371039312510554
| 32> C 0.8779017939004449 1.9286261255809356 -2.4014031823887985
| 33> C 0.9151132429528844 2.8459348984054533 -3.448629923493415
| 34> C 3.0427544687767596 1.318575416346114 -3.135734203797371
| 35> C 3.074116507506699 2.228377922555052 -4.173655694106073
| 36> H 3.9098302036940575 0.6885818133876207 -3.002185527296989
| 37> C 1.9541691748857917 3.032340091173794 -4.338362821642088
| 38> H 0.039832513629958585 3.466725120898561 -3.571310564117293
| 39> H 3.9434403321646774 2.297586422424867 -4.821438948804582
| 40> H 1.8808877355322464 3.778221116860614 -5.124762582807901
| 41> C -0.914948830270396 -2.84564639783445 3.4489201266814886
| 42> C -3.0426352926663456 -1.3183662066258235 3.135944986499798
| 43> C -1.9539284955859206 -3.031917910160267 4.338786923830753
| 44> H -0.03966847480343769 -3.466437275623845 3.571600110937716
| 45> C -3.073894810917936 -2.2279893318569335 4.174044920122505
| 46> H -3.9097469177565296 -0.6884355121108703 3.002333298705019
| 47> H -1.8805508323876297 -3.7776325845263465 5.125352775964986
| 48> H -3.9431457336622406 -2.297070048950807 4.821956166512757
| 49> * 
| 50> 
| 51> % eprnmr
| 52> gtensor true
| 53> Nuclei = all H {aiso,adip,aorb,fgrad,rho}
| 54> Nuclei = all Cu {aiso,adip,aorb,fgrad,rho}
| 55> end
| 56> 
| 57>                          ****END OF INPUT****
================================================================================

------------------------------------------------------------------------------
                            SYMMETRY HANDLING SETUP
------------------------------------------------------------------------------

------------------
SYMMETRY DETECTION
------------------
The point group will now be determined using a tolerance of 1.0000e-02.
Splitting atom subsets according to nuclear charge, mass and basis set.
Splitting atom subsets according to distance from the molecule's center.
Identifying relative distance patterns of the atoms.
Splitting atom subsets according to atoms' relative distance patterns.
Bring atoms of each subset into input order.
The molecule is neither linear nor planar.
The molecule has a center of inversion.
Analyzing the first atom subset for its symmetry.
The atoms in the selected subset form a 4-gon with alternating side lengths.
Testing point group D2h.
Test failed.
Testing point group C2h.
Test failed.
Testing point group C2h.
Success!
This point group has been found:    C2h
Largest non-degenerate subgroup:    C2h


Symmetry-perfected Cartesians (point group C2h):

Atom          Symmetry-perfected Cartesians (x, y, z; au)
  0       0.000000000000    0.000000000000    0.000000000000
  1      -2.219485301504    2.472761672561    3.002553728828
  2      -3.737065250925    4.576626481131    1.310502397153
  3       2.219485301504   -2.472761672561    3.002553728828
  4       3.737065250925   -4.576626481131    1.310502397153
  5      -2.219485301504    2.472761672561   -3.002553728828
  6      -3.737065250925    4.576626481131   -1.310502397153
  7       2.219485301504   -2.472761672561   -3.002553728828
  8       3.737065250925   -4.576626481131   -1.310502397153
  9       5.106133958181   -6.488501131034   -2.492287988443
 10       5.106133958181   -6.488501131034    2.492287988443
 11       6.457987026531   -8.382089930727    1.311885676686
 12       5.095034034913   -6.477647835259    4.533262132978
 13       6.457987026531   -8.382089930727   -1.311885676686
 14       5.095034034913   -6.477647835259   -4.533262132978
 15       7.463163816808   -9.790931617388    2.416044625421
 16       7.463163816808   -9.790931617388   -2.416044625421
 17      -5.106133958181    6.488501131034    2.492287988443
 18      -5.106133958181    6.488501131034   -2.492287988443
 19      -6.457987026531    8.382089930727    1.311885676686
 20      -5.095034034913    6.477647835259    4.533262132978
 21      -6.457987026531    8.382089930727   -1.311885676686
 22      -5.095034034913    6.477647835259   -4.533262132978
 23      -7.463163816808    9.790931617388    2.416044625421
 24      -7.463163816808    9.790931617388   -2.416044625421


-----------------------------------------------
SYMMETRY-PERFECTED CARTESIAN COORDINATES (A.U.)
-----------------------------------------------
Warning (ORCA_SYM): Coordinates were not cleaned so far!

------------------
SYMMETRY REDUCTION
------------------
ORCA supports only abelian point groups.
It is now checked, if the determined point group is supported:
Point Group ( C2h   ) is          ... supported

(Re)building abelian point group:
Creating Character Table          ... done
Making direct product table       ... done
Constructing symmetry operations  ... done
Creating atom transfer table      ... done
Creating asymmetric unit          ... done

----------------------
ASYMMETRIC UNIT IN C2h
----------------------
  #  AT     MASS              COORDS (A.U.)             BAS
   0 Cu  63.5500   0.00000000   0.00000000   0.00000000   0
   1 Se  78.9600  -2.21948530   2.47276167   3.00255373   0
   2 C   12.0110  -3.73706525   4.57662648   1.31050240   0
   9 C   12.0110   5.10613396  -6.48850113  -2.49228799   0
  11 C   12.0110   6.45798703  -8.38208993   1.31188568   0
  12 H    1.0080   5.09503403  -6.47764784   4.53326213   0
  15 H    1.0080   7.46316382  -9.79093162   2.41604463   0

----------------------
SYMMETRY ADAPTED BASIS
----------------------
The coefficients for the symmetry adapted linear combinations (SALCS)
of basis functions will now be computed:
Number of basis functions         ...   575
Preparing memory                  ... done
Constructing Gamma(red)           ... done
Reducing Gamma(red)               ... done
Constructing SALCs                ... done
Checking SALC integrity           ... nothing suspicious
Normalizing SALCs                 ... done

Storing the symmetry object:
Symmetry file                     ... input_5.sym.tmp
Writing symmetry information      ... done

                       ****************************
                       * Single Point Calculation *
                       ****************************

---------------------------------
CARTESIAN COORDINATES (ANGSTROEM)
---------------------------------
  Cu     0.000000    0.000000    0.000000
  Se    -1.174501    1.308529    1.588883
  C     -1.977570    2.421846    0.693488
  Se     1.174501   -1.308529    1.588883
  C      1.977570   -2.421846    0.693488
  Se    -1.174501    1.308529   -1.588883
  C     -1.977570    2.421846   -0.693488
  Se     1.174501   -1.308529   -1.588883
  C      1.977570   -2.421846   -0.693488
  C      2.702050   -3.433567   -1.318862
  C      2.702050   -3.433567    1.318862
  C      3.417420   -4.435611    0.694220
  H      2.696176   -3.427824    2.398899
  C      3.417420   -4.435611   -0.694220
  H      2.696176   -3.427824   -2.398899
  H      3.949336   -5.181138    1.278516
  H      3.949336   -5.181138   -1.278516
  C     -2.702050    3.433567    1.318862
  C     -2.702050    3.433567   -1.318862
  C     -3.417420    4.435611    0.694220
  H     -2.696176    3.427824    2.398899
  C     -3.417420    4.435611   -0.694220
  H     -2.696176    3.427824   -2.398899
  H     -3.949336    5.181138    1.278516
  H     -3.949336    5.181138   -1.278516

----------------------------
CARTESIAN COORDINATES (A.U.)
----------------------------
  NO LB      ZA    FRAG     MASS         X           Y           Z
   0 Cu   29.0000    0    63.550    0.000000    0.000000    0.000000
   1 Se   34.0000    0    78.960   -2.219485    2.472762    3.002554
   2 C     6.0000    0    12.011   -3.737065    4.576626    1.310502
   3 Se   34.0000    0    78.960    2.219485   -2.472762    3.002554
   4 C     6.0000    0    12.011    3.737065   -4.576626    1.310502
   5 Se   34.0000    0    78.960   -2.219485    2.472762   -3.002554
   6 C     6.0000    0    12.011   -3.737065    4.576626   -1.310502
   7 Se   34.0000    0    78.960    2.219485   -2.472762   -3.002554
   8 C     6.0000    0    12.011    3.737065   -4.576626   -1.310502
   9 C     6.0000    0    12.011    5.106134   -6.488501   -2.492288
  10 C     6.0000    0    12.011    5.106134   -6.488501    2.492288
  11 C     6.0000    0    12.011    6.457987   -8.382090    1.311886
  12 H     1.0000    0     1.008    5.095034   -6.477648    4.533262
  13 C     6.0000    0    12.011    6.457987   -8.382090   -1.311886
  14 H     1.0000    0     1.008    5.095034   -6.477648   -4.533262
  15 H     1.0000    0     1.008    7.463164   -9.790932    2.416045
  16 H     1.0000    0     1.008    7.463164   -9.790932   -2.416045
  17 C     6.0000    0    12.011   -5.106134    6.488501    2.492288
  18 C     6.0000    0    12.011   -5.106134    6.488501   -2.492288
  19 C     6.0000    0    12.011   -6.457987    8.382090    1.311886
  20 H     1.0000    0     1.008   -5.095034    6.477648    4.533262
  21 C     6.0000    0    12.011   -6.457987    8.382090   -1.311886
  22 H     1.0000    0     1.008   -5.095034    6.477648   -4.533262
  23 H     1.0000    0     1.008   -7.463164    9.790932    2.416045
  24 H     1.0000    0     1.008   -7.463164    9.790932   -2.416045

--------------------------------
INTERNAL COORDINATES (ANGSTROEM)
--------------------------------
 Cu     0   0   0     0.000000000000     0.00000000     0.00000000
 Se     1   0   0     2.369856737579     0.00000000     0.00000000
 C      2   1   0     1.638946001975   104.57385375     0.00000000
 Se     1   2   3     2.369864869733    95.79574847   174.71371291
 C      4   1   2     1.638933100511   104.57401459   174.72752486
 Se     1   2   3     2.369860686213    84.20434275   354.71635819
 C      3   2   1     1.386976000521   123.11507917     4.67864586
 Se     1   2   3     2.369869453184   179.99246306    86.82775330
 C      5   4   1     1.386976000467   123.11537818     4.67545911
 C      9   5   4     1.392667915882   116.68250036   180.19847189
 C      5   4   1     1.392668634589   120.20166589   184.88058065
 C     11   5   4     1.380581470911   126.41648633   179.71652454
 H     11   5   4     1.080068293603   116.25358114   359.89400420
 C     10   9   5     1.380582759426   126.41649385     0.09156770
 H     10   9   5     1.080068236294   116.25340196   179.91412432
 H     12  11   5     1.086341048493   120.56124669   180.10649035
 H     14  10   9     1.086339384444   120.56128138   179.89406223
 C      3   2   1     1.392681550589   120.20222816   184.88331596
 C      7   3   2     1.392679824537   116.68224902   180.19881139
 C     18   3   2     1.380593617946   126.41700806   179.71600275
 H     18   3   2     1.080068235414   116.25313282   359.89064403
 C     19   7   3     1.380595110677   126.41700090     0.09088548
 H     19   7   3     1.080068207742   116.25306961   179.91588643
 H     20  18   3     1.086351921232   120.56186774   180.10934441
 H     22  19   7     1.086350908024   120.56186577   179.89089405

---------------------------
INTERNAL COORDINATES (A.U.)
---------------------------
 Cu     0   0   0     0.000000000000     0.00000000     0.00000000
 Se     1   0   0     4.478380210653     0.00000000     0.00000000
 C      2   1   0     3.097159092018   104.57385375     0.00000000
 Se     1   2   3     4.478395578196    95.79574847   174.71371291
 C      4   1   2     3.097134711784   104.57401459   174.72752486
 Se     1   2   3     4.478387672490    84.20434275   354.71635819
 C      3   2   1     2.621004795305   123.11507917     4.67864586
 Se     1   2   3     4.478404239663   179.99246306    86.82775330
 C      5   4   1     2.621004795204   123.11537818     4.67545911
 C      9   5   4     2.631760956515   116.68250036   180.19847189
 C      5   4   1     2.631762314675   120.20166589   184.88058065
 C     11   5   4     2.608920885587   126.41648633   179.71652454
 H     11   5   4     2.041033280841   116.25358114   359.89400420
 C     10   9   5     2.608923320528   126.41649385     0.09156770
 H     10   9   5     2.041033172543   116.25340196   179.91412432
 H     12  11   5     2.052887069688   120.56124669   180.10649035
 H     14  10   9     2.052883925092   120.56128138   179.89406223
 C      3   2   1     2.631786722377   120.20222816   184.88331596
 C      7   3   2     2.631783460613   116.68224902   180.19881139
 C     18   3   2     2.608943840157   126.41700806   179.71600275
 H     18   3   2     2.041033170880   116.25313282   359.89064403
 C     19   7   3     2.608946661009   126.41700090     0.09088548
 H     19   7   3     2.041033118587   116.25306961   179.91588643
 H     20  18   3     2.052907616188   120.56186774   180.10934441
 H     22  19   7     2.052905701502   120.56186577   179.89089405

---------------------
BASIS SET INFORMATION
---------------------
There are 4 groups of distinct atoms

 Group   1 Type Cu  : 126s75p30d12f4g contracted to 6s5p3d2f1g pattern {212121212121/1515151515/101010/66/4}
 Group   2 Type Se  : 120s85p33d8f2g contracted to 6s5p3d2f1g pattern {202020202020/1717171717/111111/44/2}
 Group   3 Type C   : 42s18p4d contracted to 3s2p1d pattern {141414/99/4}
 Group   4 Type H   : 24s8p3d contracted to 3s2p1d pattern {888/44/3}

Atom   0Cu   basis set group =>   1
Atom   1Se   basis set group =>   2
Atom   2C    basis set group =>   3
Atom   3Se   basis set group =>   2
Atom   4C    basis set group =>   3
Atom   5Se   basis set group =>   2
Atom   6C    basis set group =>   3
Atom   7Se   basis set group =>   2
Atom   8C    basis set group =>   3
Atom   9C    basis set group =>   3
Atom  10C    basis set group =>   3
Atom  11C    basis set group =>   3
Atom  12H    basis set group =>   4
Atom  13C    basis set group =>   3
Atom  14H    basis set group =>   4
Atom  15H    basis set group =>   4
Atom  16H    basis set group =>   4
Atom  17C    basis set group =>   3
Atom  18C    basis set group =>   3
Atom  19C    basis set group =>   3
Atom  20H    basis set group =>   4
Atom  21C    basis set group =>   3
Atom  22H    basis set group =>   4
Atom  23H    basis set group =>   4
Atom  24H    basis set group =>   4

-------------------------
BASIS SET IN INPUT FORMAT
-------------------------

 # Basis set for element : H 
 NewGTO H 
 S 8 
   1     188.6144500000      0.0009638500
   2      28.2765960000      0.0074919600
   3       6.4248300000      0.0375954101
   4       1.8150410000      0.1433949804
   5       0.5910630000      0.3486363010
   6       0.2121490000      0.4382973612
   7       0.0798910000      0.1651066105
   8       0.0279620000      0.0210228701
 S 8 
   1     188.6144500000     -0.0013119000
   2      28.2765960000     -0.0103451000
   3       6.4248300000     -0.0504952998
   4       1.8150410000     -0.2073854991
   5       0.5910630000     -0.4350884981
   6       0.2121490000     -0.0247296999
   7       0.0798910000      0.3225259886
   8       0.0279620000      0.7072753770
 S 8 
   1     188.6144500000      0.0024224000
   2      28.2765960000      0.0203381700
   3       6.4248300000      0.0896393498
   4       1.8150410000      0.4422907090
   5       0.5910630000      0.5757143887
   6       0.2121490000     -0.9802889977
   7       0.0798910000     -0.6721537984
   8       0.0279620000      1.1417684974
 P 4 
   1       2.3050000000      0.1127901896
   2       0.8067500000      0.4185075284
   3       0.2823620000      0.4700077282
   4       0.0988270000      0.1826260293
 P 4 
   1       2.3050000000     -0.2108687968
   2       0.8067500000     -0.5943795909
   3       0.2823620000      0.0896888786
   4       0.0988270000      0.8611633869
 D 3 
   1       1.8190000000      0.2705134090
   2       0.7276000000      0.5510124980
   3       0.2910400000      0.3310866388
  end;

 # Basis set for element : C 
 NewGTO C 
 S 14 
   1   50557.5010000000      0.0001128874
   2    7524.7856000000      0.0005295373
   3    1694.3276000000      0.0024500383
   4     472.8227900000      0.0100539847
   5     151.7107500000      0.0354539806
   6      53.9187460000      0.1044071086
   7      20.6593110000      0.2412894918
   8       8.3839760000      0.3834225483
   9       3.5770150000      0.3078514393
  10       1.5471180000      0.0687244299
  11       0.6130130000      0.0002224445
  12       0.2460680000      0.0019767489
  13       0.0990870000      0.0020578594
  14       0.0346800000      0.0004182020
 S 14 
   1   50557.5010000000     -0.0000250742
   2    7524.7856000000     -0.0001175945
   3    1694.3276000000     -0.0005456275
   4     472.8227900000     -0.0022450771
   5     151.7107500000     -0.0080434718
   6      53.9187460000     -0.0244258871
   7      20.6593110000     -0.0613679118
   8       8.3839760000     -0.1177767835
   9       3.5770150000     -0.1550487783
  10       1.5471180000     -0.0193331686
  11       0.6130130000      0.3996930678
  12       0.2460680000      0.5589420949
  13       0.0990870000      0.1711195023
  14       0.0346800000      0.0074562446
 S 14 
   1   50557.5010000000      0.0000161788
   2    7524.7856000000      0.0000749712
   3    1694.3276000000      0.0003573467
   4     472.8227900000      0.0014349316
   5     151.7107500000      0.0055086779
   6      53.9187460000      0.0169149690
   7      20.6593110000      0.0514166524
   8       8.3839760000      0.1137343741
   9       3.5770150000      0.2337183944
  10       1.5471180000     -0.0718378257
  11       0.6130130000     -1.0490908711
  12       0.2460680000     -0.0666273399
  13       0.0990870000      1.0119993798
  14       0.0346800000      0.1656046386
 P 9 
   1      83.3331550000      0.0013446560
   2      19.5576110000      0.0102355550
   3       6.0803650000      0.0452006710
   4       2.1793170000      0.1410756198
   5       0.8651500000      0.3047388085
   6       0.3619440000      0.3995281011
   7       0.1547400000      0.2719163432
   8       0.0654290000      0.0585766933
   9       0.0229000000     -0.0001263813
 P 9 
   1      83.3331550000     -0.0017715885
   2      19.5576110000     -0.0145621810
   3       6.0803650000     -0.0574573357
   4       2.1793170000     -0.2126582848
   5       0.8651500000     -0.5271712924
   6       0.3619440000     -0.0929697730
   7       0.1547400000      0.6630031669
   8       0.0654290000      0.3360877793
   9       0.0229000000      0.0054695244
 D 4 
   1       1.9000000000      0.1424518048
   2       0.6650000000      0.5591973019
   3       0.2327500000      0.4430004380
   4       0.0814630000      0.0410665370
  end;

 # Basis set for element : Cu
 NewGTO Cu
 S 21 
   1  9148883.0000000000      0.0001172200
   2  1369956.0000000000      0.0003315500
   3  311782.6000000000      0.0008824300
   4   88318.8000000000      0.0021722900
   5   28815.5300000000      0.0052954701
   6   10403.4600000000      0.0129663001
   7    4057.7910000000      0.0318805003
   8    1682.9740000000      0.0757656907
   9     733.7543000000      0.1624463715
  10     333.2677000000      0.2843595927
  11     156.4338000000      0.3417364333
  12      74.6972100000      0.2095508720
  13      33.3226200000      0.0354475103
  14      16.6223700000     -0.0024399600
  15       8.2082600000      0.0014699000
  16       3.6094000000     -0.0006437900
  17       1.6834490000      0.0002473800
  18       0.7337570000     -0.0000811800
  19       0.1102070000      0.0000161500
  20       0.0387860000     -0.0000123300
  21       0.0155140000      0.0000045200
 S 21 
   1  9148883.0000000000     -0.0000367500
   2  1369956.0000000000     -0.0001040300
   3  311782.6000000000     -0.0002773300
   4   88318.8000000000     -0.0006841700
   5   28815.5300000000     -0.0016768600
   6   10403.4600000000     -0.0041346000
   7    4057.7910000000     -0.0103512700
   8    1682.9740000000     -0.0253479100
   9     733.7543000000     -0.0583694699
  10     333.2677000000     -0.1167328398
  11     156.4338000000     -0.1846685996
  12      74.6972100000     -0.1470089897
  13      33.3226200000      0.1848325696
  14      16.6223700000      0.5677360889
  15       8.2082600000      0.3795609193
  16       3.6094000000      0.0470375499
  17       1.6834490000     -0.0007278300
  18       0.7337570000      0.0010297600
  19       0.1102070000     -0.0000702000
  20       0.0387860000      0.0000709000
  21       0.0155140000     -0.0000245400
 S 21 
   1  9148883.0000000000      0.0000138300
   2  1369956.0000000000      0.0000391400
   3  311782.6000000000      0.0001043900
   4   88318.8000000000      0.0002574500
   5   28815.5300000000      0.0006320300
   6   10403.4600000000      0.0015571800
   7    4057.7910000000      0.0039165900
   8    1682.9740000000      0.0095947599
   9     733.7543000000      0.0223883699
  10     333.2677000000      0.0452860597
  11     156.4338000000      0.0749837795
  12      74.6972100000      0.0618816996
  13      33.3226200000     -0.0904732694
  14      16.6223700000     -0.3928847174
  15       8.2082600000     -0.3566495576
  16       3.6094000000      0.3455479277
  17       1.6834490000      0.7063919653
  18       0.7337570000      0.2533591083
  19       0.1102070000      0.0065874900
  20       0.0387860000     -0.0004424700
  21       0.0155140000      0.0007233800
 S 21 
   1  9148883.0000000000     -0.0000027100
   2  1369956.0000000000     -0.0000076600
   3  311782.6000000000     -0.0000204700
   4   88318.8000000000     -0.0000503000
   5   28815.5300000000     -0.0001244200
   6   10403.4600000000     -0.0003026900
   7    4057.7910000000     -0.0007762800
   8    1682.9740000000     -0.0018524000
   9     733.7543000000     -0.0044827000
  10     333.2677000000     -0.0086602401
  11     156.4338000000     -0.0154472601
  12      74.6972100000     -0.0108986401
  13      33.3226200000      0.0146786701
  14      16.6223700000      0.0915412206
  15       8.2082600000      0.0633085704
  16       3.6094000000     -0.0609387904
  17       1.6834490000     -0.2714854517
  18       0.7337570000     -0.1013894406
  19       0.1102070000      0.7121218043
  20       0.0387860000      0.3461317521
  21       0.0155140000      0.0719870904
 S 21 
   1  9148883.0000000000      0.0000034600
   2  1369956.0000000000      0.0000097900
   3  311782.6000000000      0.0000262600
   4   88318.8000000000      0.0000639200
   5   28815.5300000000      0.0001608700
   6   10403.4600000000      0.0003802300
   7    4057.7910000000      0.0010171600
   8    1682.9740000000      0.0022915200
   9     733.7543000000      0.0059749700
  10     333.2677000000      0.0104469500
  11     156.4338000000      0.0215158300
  12      74.6972100000      0.0103012800
  13      33.3226200000     -0.0098432400
  14      16.6223700000     -0.1429262997
  15       8.2082600000     -0.0561270699
  16       3.6094000000      0.0913564998
  17       1.6834490000      0.4583140189
  18       0.7337570000     -0.1972673995
  19       0.1102070000     -1.3031015670
  20       0.0387860000      0.8797556780
  21       0.0155140000      0.5731088887
 S 21 
   1  9148883.0000000000     -0.0000140100
   2  1369956.0000000000     -0.0000395900
   3  311782.6000000000     -0.0001061200
   4   88318.8000000000     -0.0002590000
   5   28815.5300000000     -0.0006486500
   6   10403.4600000000     -0.0015477000
   7    4057.7910000000     -0.0040834200
   8    1682.9740000000     -0.0094020600
   9     733.7543000000     -0.0238911700
  10     333.2677000000     -0.0435983200
  11     156.4338000000     -0.0858885701
  12      74.6972100000     -0.0473486501
  13      33.3226200000      0.0638259201
  14      16.6223700000      0.5936354107
  15       8.2082600000      0.4150606205
  16       3.6094000000     -1.7002794219
  17       1.6834490000     -0.2979995603
  18       0.7337570000      1.7071942519
  19       0.1102070000     -0.6560005307
  20       0.0387860000     -0.3192452404
  21       0.0155140000      0.6177245607
 P 15 
   1    9713.2530000000      0.0003998700
   2    2300.8890000000      0.0021015700
   3     746.7706000000      0.0100109700
   4     284.6806000000      0.0383603898
   5     119.9999000000      0.1162675595
   6      54.0738600000      0.2589983089
   7      25.3732100000      0.3842822584
   8      12.2096200000      0.2991120987
   9       5.7574210000      0.0800067197
  10       2.6734020000      0.0031944000
  11       1.1868350000      0.0014725200
  12       0.4815930000     -0.0002339100
  13       0.1926370000      0.0002076100
  14       0.0770550000     -0.0000896300
  15       0.0308220000      0.0000278300
 P 15 
   1    9713.2530000000     -0.0001487900
   2    2300.8890000000     -0.0007826200
   3     746.7706000000     -0.0037622900
   4     284.6806000000     -0.0145796799
   5     119.9999000000     -0.0457109297
   6      54.0738600000     -0.1059301293
   7      25.3732100000     -0.1683622789
   8      12.2096200000     -0.1037321293
   9       5.7574210000      0.2108315487
  10       2.6734020000      0.4891644269
  11       1.1868350000      0.3846863776
  12       0.4815930000      0.0852933795
  13       0.1926370000     -0.0016104500
  14       0.0770550000      0.0020653000
  15       0.0308220000     -0.0006417500
 P 15 
   1    9713.2530000000      0.0000505300
   2    2300.8890000000      0.0002671900
   3     746.7706000000      0.0012771800
   4     284.6806000000      0.0049976000
   5     119.9999000000      0.0156137599
   6      54.0738600000      0.0368970098
   7      25.3732100000      0.0579646897
   8      12.2096200000      0.0379196598
   9       5.7574210000     -0.1170649894
  10       2.6734020000     -0.2091225689
  11       1.1868350000     -0.0580053197
  12       0.4815930000      0.1643073591
  13       0.1926370000      0.5288546572
  14       0.0770550000      0.3737301580
  15       0.0308220000      0.0839986596
 P 15 
   1    9713.2530000000     -0.0001587800
   2    2300.8890000000     -0.0008535900
   3     746.7706000000     -0.0039991900
   4     284.6806000000     -0.0160809199
   5     119.9999000000     -0.0492486397
   6      54.0738600000     -0.1216567894
   7      25.3732100000     -0.1771336691
   8      12.2096200000     -0.1444819692
   9       5.7574210000      0.6474331066
  10       2.6734020000      0.5479769171
  11       1.1868350000     -0.7818032059
  12       0.4815930000     -0.5260777772
  13       0.1926370000      0.2243717688
  14       0.0770550000      0.3339245282
  15       0.0308220000      0.1444637392
 P 15 
   1    9713.2530000000      0.0001267900
   2    2300.8890000000      0.0006839700
   3     746.7706000000      0.0032029100
   4     284.6806000000      0.0130135100
   5     119.9999000000      0.0402137099
   6      54.0738600000      0.1015010898
   7      25.3732100000      0.1370095397
   8      12.2096200000      0.1062897198
   9       5.7574210000     -0.8339026482
  10       2.6734020000      0.1441200197
  11       1.1868350000      0.9830123878
  12       0.4815930000     -0.5295641788
  13       0.1926370000     -0.7530398383
  14       0.0770550000      0.4428869990
  15       0.0308220000      0.5751158887
 D 10 
   1     249.3497000000      0.0013456100
   2      74.6383700000      0.0108098300
   3      28.3764100000      0.0473379301
   4      11.9489300000      0.1377258202
   5       5.3176460000      0.2626383304
   6       2.3644170000      0.3347040105
   7       1.0123860000      0.3100059705
   8       0.4067730000      0.2131681903
   9       0.1473310000      0.0786536501
  10       0.0589320000      0.0060309600
 D 10 
   1     249.3497000000     -0.0015835900
   2      74.6383700000     -0.0128111601
   3      28.3764100000     -0.0564267902
   4      11.9489300000     -0.1664139307
   5       5.3176460000     -0.3510601415
   6       2.3644170000     -0.2371789010
   7       1.0123860000      0.2199464110
   8       0.4067730000      0.4884136321
   9       0.1473310000      0.2953713113
  10       0.0589320000      0.0429553902
 D 10 
   1     249.3497000000      0.0019111600
   2      74.6383700000      0.0177249500
   3      28.3764100000      0.0705638099
   4      11.9489300000      0.2290610097
   5       5.3176460000      0.4393851094
   6       2.3644170000     -0.2673990797
   7       1.0123860000     -0.6259062392
   8       0.4067730000      0.1221133998
   9       0.1473310000      0.5368362893
  10       0.0589320000      0.1975005497
 F 6 
   1      15.4333000000      0.0368206299
   2       6.1172000000      0.2459141793
   3       2.4246000000      0.5011268786
   4       0.9610000000      0.3585064790
   5       0.3809000000      0.1472806196
   6       0.1510000000      0.0256474799
 F 6 
   1      15.4333000000     -0.0620033603
   2       6.1172000000     -0.5287666929
   3       2.4246000000     -0.2907838616
   4       0.9610000000      0.5212415728
   5       0.3809000000      0.3753220521
   6       0.1510000000      0.1065979806
 G 4 
   1       8.7286000000      0.1690384791
   2       3.4308000000      0.6065418469
   3       1.3485000000      0.3797989880
   4       0.5300000000      0.1036775695
  end;

 # Basis set for element : Se
 NewGTO Se
 S 20 
   1  15378932.5999999996      0.0001334000
   2  1954263.9700000000      0.0004439400
   3  379640.6000000000      0.0013127500
   4   93606.4895000000      0.0035598200
   5   27183.3190000000      0.0094252900
   6    8900.6248300000      0.0249605899
   7    3196.4747300000      0.0652118297
   8    1233.7752100000      0.1568651194
   9     503.4591590000      0.3055559788
  10     214.5987720000      0.3814771885
  11      94.0903310000      0.1984466692
  12      40.3524084000      0.0167580599
  13      18.4102151000      0.0015085900
  14       8.3955108500     -0.0010891700
  15       3.7475099500      0.0006664500
  16       1.6293192600     -0.0003856700
  17       0.6415915500      0.0002320200
  18       0.2789203800     -0.0001327100
  19       0.1120174900      0.0000529900
  20       0.0448069900     -0.0000092000
 S 20 
   1  15378932.5999999996     -0.0000428500
   2  1954263.9700000000     -0.0001427500
   3  379640.6000000000     -0.0004229000
   4   93606.4895000000     -0.0011512100
   5   27183.3190000000     -0.0030687700
   6    8900.6248300000     -0.0082421599
   7    3196.4747300000     -0.0221427099
   8    1233.7752100000     -0.0567430396
   9     503.4591590000     -0.1268132992
  10     214.5987720000     -0.2113817486
  11      94.0903310000     -0.1375811391
  12      40.3524084000      0.3473067377
  13      18.4102151000      0.6374904458
  14       8.3955108500      0.1961151687
  15       3.7475099500      0.0071494700
  16       1.6293192600      0.0020721900
  17       0.6415915500     -0.0001816900
  18       0.2789203800      0.0006804000
  19       0.1120174900      0.0002818800
  20       0.0448069900      0.0000485300
 S 20 
   1  15378932.5999999996      0.0000168900
   2  1954263.9700000000      0.0000562700
   3  379640.6000000000      0.0001667600
   4   93606.4895000000      0.0004541400
   5   27183.3190000000      0.0012118000
   6    8900.6248300000      0.0032600300
   7    3196.4747300000      0.0087915900
   8    1233.7752100000      0.0227118500
   9     503.4591590000      0.0517227800
  10     214.5987720000      0.0897834199
  11      94.0903310000      0.0626941499
  12      40.3524084000     -0.1984690398
  13      18.4102151000     -0.5365347995
  14       8.3955108500     -0.1060836599
  15       3.7475099500      0.7395202493
  16       1.6293192600      0.5061155595
  17       0.6415915500      0.0157278100
  18       0.2789203800      0.0211140900
  19       0.1120174900      0.0031657100
  20       0.0448069900      0.0012003800
 S 20 
   1  15378932.5999999996     -0.0000052400
   2  1954263.9700000000     -0.0000174600
   3  379640.6000000000     -0.0000517600
   4   93606.4895000000     -0.0001409500
   5   27183.3190000000     -0.0003762100
   6    8900.6248300000     -0.0010121000
   7    3196.4747300000     -0.0027317500
   8    1233.7752100000     -0.0070620600
   9     503.4591590000     -0.0161369400
  10     214.5987720000     -0.0281528999
  11      94.0903310000     -0.0199427700
  12      40.3524084000      0.0653079398
  13      18.4102151000      0.1866783796
  14       8.3955108500      0.0354627099
  15       3.7475099500     -0.3411660192
  16       1.6293192600     -0.4414863990
  17       0.6415915500      0.2202745295
  18       0.2789203800      0.7306425483
  19       0.1120174900      0.3077878193
  20       0.0448069900      0.0085374900
 S 20 
   1  15378932.5999999996      0.0000048600
   2  1954263.9700000000      0.0000163700
   3  379640.6000000000      0.0000473100
   4   93606.4895000000      0.0001365200
   5   27183.3190000000      0.0003259200
   6    8900.6248300000      0.0010644800
   7    3196.4747300000      0.0021147500
   8    1233.7752100000      0.0092318800
   9     503.4591590000      0.0090091100
  10     214.5987720000      0.0332185699
  11      94.0903310000      0.0092277400
  12      40.3524084000     -0.0425099299
  13      18.4102151000     -0.2122362594
  14       8.3955108500      0.0213637199
  15       3.7475099500      0.2715316493
  16       1.6293192600      0.7115373980
  17       0.6415915500     -1.0981705070
  18       0.2789203800     -0.8688003776
  19       0.1120174900      1.2464513766
  20       0.0448069900      0.2852642892
 S 20 
   1  15378932.5999999996     -0.0000066500
   2  1954263.9700000000     -0.0000205700
   3  379640.6000000000     -0.0000724200
   4   93606.4895000000     -0.0001245600
   5   27183.3190000000     -0.0006992800
   6    8900.6248300000     -0.0001043100
   7    3196.4747300000     -0.0075491900
   8    1233.7752100000      0.0164844900
   9     503.4591590000     -0.0800215798
  10     214.5987720000      0.0209696300
  11      94.0903310000     -0.1059056798
  12      40.3524084000      0.2543532495
  13      18.4102151000      0.0653380099
  14       8.3955108500      0.2234480795
  15       3.7475099500     -0.8515261082
  16       1.6293192600     -0.7549058184
  17       0.6415915500      3.6906889623
  18       0.2789203800     -3.4326587828
  19       0.1120174900      0.3954868192
  20       0.0448069900      0.8696904382
 P 17 
   1  143787.9870000000      0.0000438700
   2   22177.9579000000      0.0002341200
   3    5417.0521100000      0.0011395000
   4    1717.3427700000      0.0051036000
   5     640.1680710000      0.0200978199
   6     265.4421210000      0.0662424097
   7     118.6091690000      0.1715184091
   8      55.7211799000      0.3204143384
   9      27.1086699000      0.3714738081
  10      13.4156096000      0.2006667190
  11       6.4447310200      0.0338313098
  12       3.0526007200      0.0013699800
  13       1.4224606200      0.0005176500
  14       0.5309172200     -0.0000770200
  15       0.2095028200      0.0000023400
  16       0.0785990400     -0.0000157000
  17       0.0314396100      0.0000037300
 P 17 
   1  143787.9870000000     -0.0000174600
   2   22177.9579000000     -0.0000932300
   3    5417.0521100000     -0.0004552900
   4    1717.3427700000     -0.0020455300
   5     640.1680710000     -0.0081504200
   6     265.4421210000     -0.0273946700
   7     118.6091690000     -0.0738833800
   8      55.7211799000     -0.1450003899
   9      27.1086699000     -0.1760046399
  10      13.4156096000      0.0019223800
  11       6.4447310200      0.3630425798
  12       3.0526007200      0.5026005497
  13       1.4224606200      0.2356755199
  14       0.5309172200      0.0184743800
  15       0.2095028200     -0.0025018700
  16       0.0785990400      0.0002164700
  17       0.0314396100     -0.0002403400
 P 17 
   1  143787.9870000000      0.0000041600
   2   22177.9579000000      0.0000221700
   3    5417.0521100000      0.0001087700
   4    1717.3427700000      0.0004859100
   5     640.1680710000      0.0019528300
   6     265.4421210000      0.0065271000
   7     118.6091690000      0.0178583000
   8      55.7211799000      0.0348438599
   9      27.1086699000      0.0435580899
  10      13.4156096000     -0.0066371700
  11       6.4447310200     -0.1040411897
  12       3.0526007200     -0.1705446796
  13       1.4224606200     -0.0527924199
  14       0.5309172200      0.3540454591
  15       0.2095028200      0.5455976386
  16       0.0785990400      0.2464488194
  17       0.0314396100      0.0287307699
 P 17 
   1  143787.9870000000     -0.0000037900
   2   22177.9579000000     -0.0000202500
   3    5417.0521100000     -0.0000986800
   4    1717.3427700000     -0.0004449500
   5     640.1680710000     -0.0017690200
   6     265.4421210000     -0.0059850800
   7     118.6091690000     -0.0161604799
   8      55.7211799000     -0.0321314099
   9      27.1086699000     -0.0388343298
  10      13.4156096000      0.0040976900
  11       6.4447310200      0.1027056796
  12       3.0526007200      0.1479946594
  13       1.4224606200      0.0916032396
  14       0.5309172200     -0.6457900772
  15       0.2095028200     -0.3047938487
  16       0.0785990400      0.7443693368
  17       0.0314396100      0.3803063283
 P 17 
   1  143787.9870000000      0.0000055500
   2   22177.9579000000      0.0000283700
   3    5417.0521100000      0.0001505200
   4    1717.3427700000      0.0006038200
   5     640.1680710000      0.0027476900
   6     265.4421210000      0.0079958300
   7     118.6091690000      0.0256812100
   8      55.7211799000      0.0403250499
   9      27.1086699000      0.0726836099
  10      13.4156096000     -0.0400497499
  11       6.4447310200     -0.0927272698
  12       3.0526007200     -0.3547002293
  13       1.4224606200      0.0659205399
  14       0.5309172200      1.3956049174
  15       0.2095028200     -1.3892391674
  16       0.0785990400     -0.1866128496
  17       0.0314396100      0.8636213584
 D 11 
   1     503.4591590000      0.0007198700
   2     214.5987720000      0.0025122300
   3      94.0903310000      0.0149394599
   4      40.3524084000      0.0561371297
   5      18.4102151000      0.1559031991
   6       8.3955108500      0.3069174683
   7       3.7475099500      0.3831917879
   8       1.6293192600      0.2927991284
   9       0.6415915500      0.0905204295
  10       0.2566366200      0.0004461100
  11       0.1026546500      0.0017686600
 D 11 
   1     503.4591590000     -0.0002002600
   2     214.5987720000     -0.0007583600
   3      94.0903310000     -0.0042026700
   4      40.3524084000     -0.0165291900
   5      18.4102151000     -0.0444959800
   6       8.3955108500     -0.0937891599
   7       3.7475099500     -0.1088980599
   8       1.6293192600     -0.1007123699
   9       0.6415915500      0.3874256496
  10       0.2566366200      0.6095026894
  11       0.1026546500      0.1618579698
 D 11 
   1     503.4591590000      0.0002561400
   2     214.5987720000      0.0006656200
   3      94.0903310000      0.0051283000
   4      40.3524084000      0.0160056700
   5      18.4102151000      0.0522849901
   6       8.3955108500      0.0982963002
   7       3.7475099500      0.1545055703
   8       1.6293192600      0.1267978402
   9       0.6415915500     -1.0554217820
  10       0.2566366200      0.3582744907
  11       0.1026546500      0.6766095113
 F 4 
   1       1.1928400000      0.1040642200
   2       0.4771360000      0.6746102203
   3       0.1908540000      0.3393981302
   4       0.0763416000      0.0365920800
 F 4 
   1       1.1928400000     -0.3745380412
   2       0.4771360000     -0.6466946021
   3       0.1908540000      1.0068953133
   4       0.0763416000      0.0804573103
 G 2 
   1       0.5964200000      0.7614694129
   2       0.2385670000      0.3452849513
  end;

---------------------------------
AUXILIARY/J BASIS SET INFORMATION
---------------------------------
There are 5 groups of distinct atoms

 Group   1 Type Cu  : 23s20p18d17f13g5h contracted to 23s20p18d17f13g5h pattern {11111111111111111111111/11111111111111111111/111111111111111111/11111111111111111/1111111111111/11111}
 Group   2 Type Se  : 22s20p18d18f14g6h contracted to 22s20p18d18f14g6h pattern {1111111111111111111111/11111111111111111111/111111111111111111/111111111111111111/11111111111111/111111}
 Group   3 Type C   : 17s14p13d4f contracted to 17s14p13d4f pattern {11111111111111111/11111111111111/1111111111111/1111}
 Group   4 Type C   : 16s14p13d4f contracted to 16s14p13d4f pattern {1111111111111111/11111111111111/1111111111111/1111}
 Group   5 Type H   : 12s5p4d3f contracted to 12s5p4d3f pattern {111111111111/11111/1111/111}

Atom   0Cu   basis set group =>   1
Atom   1Se   basis set group =>   2
Atom   2C    basis set group =>   3
Atom   3Se   basis set group =>   2
Atom   4C    basis set group =>   4
Atom   5Se   basis set group =>   2
Atom   6C    basis set group =>   4
Atom   7Se   basis set group =>   2
Atom   8C    basis set group =>   3
Atom   9C    basis set group =>   3
Atom  10C    basis set group =>   3
Atom  11C    basis set group =>   3
Atom  12H    basis set group =>   5
Atom  13C    basis set group =>   3
Atom  14H    basis set group =>   5
Atom  15H    basis set group =>   5
Atom  16H    basis set group =>   5
Atom  17C    basis set group =>   3
Atom  18C    basis set group =>   3
Atom  19C    basis set group =>   3
Atom  20H    basis set group =>   5
Atom  21C    basis set group =>   3
Atom  22H    basis set group =>   5
Atom  23H    basis set group =>   5
Atom  24H    basis set group =>   5

-------------------------------------
AUXILIARY/J BASIS SET IN INPUT FORMAT
-------------------------------------

 # Auxiliary/J basis set for element : H 
 NewAuxJGTO H 
 S 1 
   1      35.9414656527      1.0000000000
 S 1 
   1      19.9674809182      1.0000000000
 S 1 
   1      11.0930449545      1.0000000000
 S 1 
   1       6.1628027525      1.0000000000
 S 1 
   1       3.4237793070      1.0000000000
 S 1 
   1       1.9020996150      1.0000000000
 S 1 
   1       1.0567220083      1.0000000000
 S 1 
   1       0.5870677824      1.0000000000
 S 1 
   1       0.3261487680      1.0000000000
 S 1 
   1       0.1811937600      1.0000000000
 S 1 
   1       0.1006632000      1.0000000000
 S 1 
   1       0.0559240000      1.0000000000
 P 1 
   1       2.0286240000      1.0000000000
 P 1 
   1       1.0143120000      1.0000000000
 P 1 
   1       0.5071560000      1.0000000000
 P 1 
   1       0.2535780000      1.0000000000
 P 1 
   1       0.1267890000      1.0000000000
 D 1 
   1       2.1046197920      1.0000000000
 D 1 
   1       0.9566453600      1.0000000000
 D 1 
   1       0.4348388000      1.0000000000
 D 1 
   1       0.1976540000      1.0000000000
 F 1 
   1       1.8869562800      1.0000000000
 F 1 
   1       0.8577074000      1.0000000000
 F 1 
   1       0.3898670000      1.0000000000
  end;

 # Auxiliary/J basis set for element : Cu
 NewAuxJGTO Cu
 S 1 
   1   12815.8936556437      1.0000000000
 S 1 
   1    7119.9409198021      1.0000000000
 S 1 
   1    3955.5227332234      1.0000000000
 S 1 
   1    2197.5126295685      1.0000000000
 S 1 
   1    1220.8403497603      1.0000000000
 S 1 
   1     678.2446387557      1.0000000000
 S 1 
   1     376.8025770865      1.0000000000
 S 1 
   1     209.3347650481      1.0000000000
 S 1 
   1     116.2970916934      1.0000000000
 S 1 
   1      64.6094953852      1.0000000000
 S 1 
   1      35.8941641029      1.0000000000
 S 1 
   1      19.9412022794      1.0000000000
 S 1 
   1      11.0784457108      1.0000000000
 S 1 
   1       6.1546920615      1.0000000000
 S 1 
   1       3.4192733675      1.0000000000
 S 1 
   1       1.8995963153      1.0000000000
 S 1 
   1       1.0553312863      1.0000000000
 S 1 
   1       0.5862951590      1.0000000000
 S 1 
   1       0.3257195328      1.0000000000
 S 1 
   1       0.1809552960      1.0000000000
 S 1 
   1       0.1005307200      1.0000000000
 S 1 
   1       0.0558504000      1.0000000000
 S 1 
   1       0.0310280000      1.0000000000
 P 1 
   1    3281.6792962385      1.0000000000
 P 1 
   1    1823.1551645769      1.0000000000
 P 1 
   1    1012.8639803205      1.0000000000
 P 1 
   1     562.7022112892      1.0000000000
 P 1 
   1     312.6123396051      1.0000000000
 P 1 
   1     173.6735220028      1.0000000000
 P 1 
   1      96.4852900016      1.0000000000
 P 1 
   1      53.6029388898      1.0000000000
 P 1 
   1      29.7794104943      1.0000000000
 P 1 
   1      16.5441169413      1.0000000000
 P 1 
   1       9.1911760785      1.0000000000
 P 1 
   1       5.1062089325      1.0000000000
 P 1 
   1       2.8367827403      1.0000000000
 P 1 
   1       1.5759904113      1.0000000000
 P 1 
   1       0.8755502285      1.0000000000
 P 1 
   1       0.4864167936      1.0000000000
 P 1 
   1       0.2702315520      1.0000000000
 P 1 
   1       0.1501286400      1.0000000000
 P 1 
   1       0.0834048000      1.0000000000
 P 1 
   1       0.0463360000      1.0000000000
 D 1 
   1    1347.4833218853      1.0000000000
 D 1 
   1     748.6018454918      1.0000000000
 D 1 
   1     415.8899141621      1.0000000000
 D 1 
   1     231.0499523123      1.0000000000
 D 1 
   1     128.3610846179      1.0000000000
 D 1 
   1      71.3117136766      1.0000000000
 D 1 
   1      39.6176187092      1.0000000000
 D 1 
   1      22.0097881718      1.0000000000
 D 1 
   1      12.2276600954      1.0000000000
 D 1 
   1       6.7931444975      1.0000000000
 D 1 
   1       3.7739691653      1.0000000000
 D 1 
   1       2.0966495363      1.0000000000
 D 1 
   1       1.1648052979      1.0000000000
 D 1 
   1       0.6471140544      1.0000000000
 D 1 
   1       0.3595078080      1.0000000000
 D 1 
   1       0.1997265600      1.0000000000
 D 1 
   1       0.1109592000      1.0000000000
 D 1 
   1       0.0616440000      1.0000000000
 F 1 
   1    1089.9683674044      1.0000000000
 F 1 
   1     605.5379818913      1.0000000000
 F 1 
   1     336.4099899396      1.0000000000
 F 1 
   1     186.8944388553      1.0000000000
 F 1 
   1     103.8302438085      1.0000000000
 F 1 
   1      57.6834687825      1.0000000000
 F 1 
   1      32.0463715458      1.0000000000
 F 1 
   1      17.8035397477      1.0000000000
 F 1 
   1       9.8908554154      1.0000000000
 F 1 
   1       5.4949196752      1.0000000000
 F 1 
   1       3.0527331529      1.0000000000
 F 1 
   1       1.6959628627      1.0000000000
 F 1 
   1       0.9422015904      1.0000000000
 F 1 
   1       0.5234453280      1.0000000000
 F 1 
   1       0.2908029600      1.0000000000
 F 1 
   1       0.1615572000      1.0000000000
 F 1 
   1       0.0897540000      1.0000000000
 G 1 
   1     136.3487739404      1.0000000000
 G 1 
   1      75.7493188558      1.0000000000
 G 1 
   1      42.0829549199      1.0000000000
 G 1 
   1      23.3794193999      1.0000000000
 G 1 
   1      12.9885663333      1.0000000000
 G 1 
   1       7.2158701852      1.0000000000
 G 1 
   1       4.0088167695      1.0000000000
 G 1 
   1       2.2271204275      1.0000000000
 G 1 
   1       1.2372891264      1.0000000000
 G 1 
   1       0.6873828480      1.0000000000
 G 1 
   1       0.3818793600      1.0000000000
 G 1 
   1       0.2121552000      1.0000000000
 G 1 
   1       0.1178640000      1.0000000000
 H 1 
   1       5.8747580812      1.0000000000
 H 1 
   1       2.5542426440      1.0000000000
 H 1 
   1       1.1105402800      1.0000000000
 H 1 
   1       0.4828436000      1.0000000000
 H 1 
   1       0.2099320000      1.0000000000
  end;

 # Auxiliary/J basis set for element : Se
 NewAuxJGTO Se
 S 1 
   1   14428.7846939293      1.0000000000
 S 1 
   1    8015.9914966274      1.0000000000
 S 1 
   1    4453.3286092374      1.0000000000
 S 1 
   1    2474.0714495763      1.0000000000
 S 1 
   1    1374.4841386535      1.0000000000
 S 1 
   1     763.6022992520      1.0000000000
 S 1 
   1     424.2234995844      1.0000000000
 S 1 
   1     235.6797219913      1.0000000000
 S 1 
   1     130.9331788841      1.0000000000
 S 1 
   1      72.7406549356      1.0000000000
 S 1 
   1      40.4114749642      1.0000000000
 S 1 
   1      22.4508194246      1.0000000000
 S 1 
   1      12.4726774581      1.0000000000
 S 1 
   1       6.9292652545      1.0000000000
 S 1 
   1       3.8495918081      1.0000000000
 S 1 
   1       2.1386621156      1.0000000000
 S 1 
   1       1.1881456198      1.0000000000
 S 1 
   1       0.6600808999      1.0000000000
 S 1 
   1       0.3667116110      1.0000000000
 S 1 
   1       0.2037286728      1.0000000000
 S 1 
   1       0.1131825960      1.0000000000
 S 1 
   1       0.0628792200      1.0000000000
 P 1 
   1    4453.3286092374      1.0000000000
 P 1 
   1    2474.0714495763      1.0000000000
 P 1 
   1    1374.4841386535      1.0000000000
 P 1 
   1     763.6022992520      1.0000000000
 P 1 
   1     424.2234995844      1.0000000000
 P 1 
   1     235.6797219913      1.0000000000
 P 1 
   1     130.9331788841      1.0000000000
 P 1 
   1      72.7406549356      1.0000000000
 P 1 
   1      40.4114749642      1.0000000000
 P 1 
   1      22.4508194246      1.0000000000
 P 1 
   1      12.4726774581      1.0000000000
 P 1 
   1       6.9292652545      1.0000000000
 P 1 
   1       3.8495918081      1.0000000000
 P 1 
   1       2.1386621156      1.0000000000
 P 1 
   1       1.1881456198      1.0000000000
 P 1 
   1       0.6600808999      1.0000000000
 P 1 
   1       0.3667116110      1.0000000000
 P 1 
   1       0.2037286728      1.0000000000
 P 1 
   1       0.1131825960      1.0000000000
 P 1 
   1       0.0628792200      1.0000000000
 D 1 
   1    1374.4841386535      1.0000000000
 D 1 
   1     763.6022992520      1.0000000000
 D 1 
   1     424.2234995844      1.0000000000
 D 1 
   1     235.6797219913      1.0000000000
 D 1 
   1     130.9331788841      1.0000000000
 D 1 
   1      72.7406549356      1.0000000000
 D 1 
   1      40.4114749642      1.0000000000
 D 1 
   1      22.4508194246      1.0000000000
 D 1 
   1      12.4726774581      1.0000000000
 D 1 
   1       6.9292652545      1.0000000000
 D 1 
   1       3.8495918081      1.0000000000
 D 1 
   1       2.1386621156      1.0000000000
 D 1 
   1       1.1881456198      1.0000000000
 D 1 
   1       0.6600808999      1.0000000000
 D 1 
   1       0.3667116110      1.0000000000
 D 1 
   1       0.2037286728      1.0000000000
 D 1 
   1       0.1131825960      1.0000000000
 D 1 
   1       0.0628792200      1.0000000000
 F 1 
   1    2356.0019286162      1.0000000000
 F 1 
   1    1308.8899603424      1.0000000000
 F 1 
   1     727.1610890791      1.0000000000
 F 1 
   1     403.9783828217      1.0000000000
 F 1 
   1     224.4324349010      1.0000000000
 F 1 
   1     124.6846860561      1.0000000000
 F 1 
   1      69.2692700312      1.0000000000
 F 1 
   1      38.4829277951      1.0000000000
 F 1 
   1      21.3794043306      1.0000000000
 F 1 
   1      11.8774468503      1.0000000000
 F 1 
   1       6.5985815835      1.0000000000
 F 1 
   1       3.6658786575      1.0000000000
 F 1 
   1       2.0365992542      1.0000000000
 F 1 
   1       1.1314440301      1.0000000000
 F 1 
   1       0.6285800167      1.0000000000
 F 1 
   1       0.3492111204      1.0000000000
 F 1 
   1       0.1940061780      1.0000000000
 F 1 
   1       0.1077812100      1.0000000000
 G 1 
   1     224.4324349010      1.0000000000
 G 1 
   1     124.6846860561      1.0000000000
 G 1 
   1      69.2692700312      1.0000000000
 G 1 
   1      38.4829277951      1.0000000000
 G 1 
   1      21.3794043306      1.0000000000
 G 1 
   1      11.8774468503      1.0000000000
 G 1 
   1       6.5985815835      1.0000000000
 G 1 
   1       3.6658786575      1.0000000000
 G 1 
   1       2.0365992542      1.0000000000
 G 1 
   1       1.1314440301      1.0000000000
 G 1 
   1       0.6285800167      1.0000000000
 G 1 
   1       0.3492111204      1.0000000000
 G 1 
   1       0.1940061780      1.0000000000
 G 1 
   1       0.1077812100      1.0000000000
 H 1 
   1       9.8272144554      1.0000000000
 H 1 
   1       4.2727019371      1.0000000000
 H 1 
   1       1.8576964944      1.0000000000
 H 1 
   1       0.8076941280      1.0000000000
 H 1 
   1       0.3511713600      1.0000000000
 H 1 
   1       0.1526832000      1.0000000000
  end;

 There are some elements with more than one basis set type. The most frequent
 definition will be printed and can be used in [BASIS]. The less frequent definitions
 must be pasted into the [COORDS] section after specification of the given atom
 # Auxiliary/J basis set for element : C 
 NewAuxJGTO C 
 S 1 
    1    556.1930524224      1.0000000000
 S 1 
    1    308.9961402347      1.0000000000
 S 1 
    1    171.6645223526      1.0000000000
 S 1 
    1     95.3691790848      1.0000000000
 S 1 
    1     52.9828772693      1.0000000000
 S 1 
    1     29.4349318163      1.0000000000
 S 1 
    1     16.3527398979      1.0000000000
 S 1 
    1      9.0848554989      1.0000000000
 S 1 
    1      5.0471419438      1.0000000000
 S 1 
    1      2.8039677466      1.0000000000
 S 1 
    1      1.5577598592      1.0000000000
 S 1 
    1      0.8654221440      1.0000000000
 S 1 
    1      0.4807900800      1.0000000000
 S 1 
    1      0.2671056000      1.0000000000
 S 1 
    1      0.1483920000      1.0000000000
 S 1 
    1      0.0824400000      1.0000000000
 S 1 
    1      0.0458000000      1.0000000000
 P 1 
    1     95.3691790848      1.0000000000
 P 1 
    1     52.9828772693      1.0000000000
 P 1 
    1     29.4349318163      1.0000000000
 P 1 
    1     16.3527398979      1.0000000000
 P 1 
    1      9.0848554989      1.0000000000
 P 1 
    1      5.0471419438      1.0000000000
 P 1 
    1      2.8039677466      1.0000000000
 P 1 
    1      1.5577598592      1.0000000000
 P 1 
    1      0.8654221440      1.0000000000
 P 1 
    1      0.4807900800      1.0000000000
 P 1 
    1      0.2671056000      1.0000000000
 P 1 
    1      0.1483920000      1.0000000000
 P 1 
    1      0.0824400000      1.0000000000
 P 1 
    1      0.0458000000      1.0000000000
 D 1 
    1     52.9828772693      1.0000000000
 D 1 
    1     29.4349318163      1.0000000000
 D 1 
    1     16.3527398979      1.0000000000
 D 1 
    1      9.0848554989      1.0000000000
 D 1 
    1      5.0471419438      1.0000000000
 D 1 
    1      2.8039677466      1.0000000000
 D 1 
    1      1.5577598592      1.0000000000
 D 1 
    1      0.8654221440      1.0000000000
 D 1 
    1      0.4807900800      1.0000000000
 D 1 
    1      0.2671056000      1.0000000000
 D 1 
    1      0.1483920000      1.0000000000
 D 1 
    1      0.0824400000      1.0000000000
 D 1 
    1      0.0458000000      1.0000000000
 F 1 
    1      1.1112572240      1.0000000000
 F 1 
    1      0.5051169200      1.0000000000
 F 1 
    1      0.2295986000      1.0000000000
 F 1 
    1      0.1043630000      1.0000000000
  end;

  # Auxiliary/J basis set for element : C 
  # Members: C 4 C 6 
  NewAuxJGTO
 S 1 
   1     556.1930524224      1.0000000000
 S 1 
   1     308.9961402347      1.0000000000
 S 1 
   1     171.6645223526      1.0000000000
 S 1 
   1      95.3691790848      1.0000000000
 S 1 
   1      52.9828772693      1.0000000000
 S 1 
   1      29.4349318163      1.0000000000
 S 1 
   1      16.3527398979      1.0000000000
 S 1 
   1       9.0848554989      1.0000000000
 S 1 
   1       5.0471419438      1.0000000000
 S 1 
   1       2.8039677466      1.0000000000
 S 1 
   1       1.5577598592      1.0000000000
 S 1 
   1       0.8654221440      1.0000000000
 S 1 
   1       0.4807900800      1.0000000000
 S 1 
   1       0.2671056000      1.0000000000
 S 1 
   1       0.1483920000      1.0000000000
 S 1 
   1       0.0458000000      1.0000000000
 P 1 
   1      95.3691790848      1.0000000000
 P 1 
   1      52.9828772693      1.0000000000
 P 1 
   1      29.4349318163      1.0000000000
 P 1 
   1      16.3527398979      1.0000000000
 P 1 
   1       9.0848554989      1.0000000000
 P 1 
   1       5.0471419438      1.0000000000
 P 1 
   1       2.8039677466      1.0000000000
 P 1 
   1       1.5577598592      1.0000000000
 P 1 
   1       0.8654221440      1.0000000000
 P 1 
   1       0.4807900800      1.0000000000
 P 1 
   1       0.2671056000      1.0000000000
 P 1 
   1       0.1483920000      1.0000000000
 P 1 
   1       0.0824400000      1.0000000000
 P 1 
   1       0.0458000000      1.0000000000
 D 1 
   1      52.9828772693      1.0000000000
 D 1 
   1      29.4349318163      1.0000000000
 D 1 
   1      16.3527398979      1.0000000000
 D 1 
   1       9.0848554989      1.0000000000
 D 1 
   1       5.0471419438      1.0000000000
 D 1 
   1       2.8039677466      1.0000000000
 D 1 
   1       1.5577598592      1.0000000000
 D 1 
   1       0.8654221440      1.0000000000
 D 1 
   1       0.4807900800      1.0000000000
 D 1 
   1       0.2671056000      1.0000000000
 D 1 
   1       0.1483920000      1.0000000000
 D 1 
   1       0.0824400000      1.0000000000
 D 1 
   1       0.0458000000      1.0000000000
 F 1 
   1       1.1112572240      1.0000000000
 F 1 
   1       0.5051169200      1.0000000000
 F 1 
   1       0.2295986000      1.0000000000
 F 1 
   1       0.1043630000      1.0000000000
---------------------------------
AUXILIARY/C BASIS SET INFORMATION
---------------------------------
There are 5 groups of distinct atoms

 Group   1 Type Cu  : 23s20p18d17f13g5h contracted to 23s20p18d17f13g5h pattern {11111111111111111111111/11111111111111111111/111111111111111111/11111111111111111/1111111111111/11111}
 Group   2 Type Se  : 22s20p18d18f14g6h contracted to 22s20p18d18f14g6h pattern {1111111111111111111111/11111111111111111111/111111111111111111/111111111111111111/11111111111111/111111}
 Group   3 Type C   : 17s14p13d4f contracted to 17s14p13d4f pattern {11111111111111111/11111111111111/1111111111111/1111}
 Group   4 Type C   : 16s14p13d4f contracted to 16s14p13d4f pattern {1111111111111111/11111111111111/1111111111111/1111}
 Group   5 Type H   : 12s5p4d3f contracted to 12s5p4d3f pattern {111111111111/11111/1111/111}

Atom   0Cu   basis set group =>   1
Atom   1Se   basis set group =>   2
Atom   2C    basis set group =>   3
Atom   3Se   basis set group =>   2
Atom   4C    basis set group =>   4
Atom   5Se   basis set group =>   2
Atom   6C    basis set group =>   4
Atom   7Se   basis set group =>   2
Atom   8C    basis set group =>   3
Atom   9C    basis set group =>   3
Atom  10C    basis set group =>   3
Atom  11C    basis set group =>   3
Atom  12H    basis set group =>   5
Atom  13C    basis set group =>   3
Atom  14H    basis set group =>   5
Atom  15H    basis set group =>   5
Atom  16H    basis set group =>   5
Atom  17C    basis set group =>   3
Atom  18C    basis set group =>   3
Atom  19C    basis set group =>   3
Atom  20H    basis set group =>   5
Atom  21C    basis set group =>   3
Atom  22H    basis set group =>   5
Atom  23H    basis set group =>   5
Atom  24H    basis set group =>   5

-------------------------------------
AUXILIARY/C BASIS SET IN INPUT FORMAT
-------------------------------------

 # Auxiliary/C basis set for element : H 
 NewAuxCGTO H 
 S 1 
   1      35.9414656527      1.0000000000
 S 1 
   1      19.9674809182      1.0000000000
 S 1 
   1      11.0930449545      1.0000000000
 S 1 
   1       6.1628027525      1.0000000000
 S 1 
   1       3.4237793070      1.0000000000
 S 1 
   1       1.9020996150      1.0000000000
 S 1 
   1       1.0567220083      1.0000000000
 S 1 
   1       0.5870677824      1.0000000000
 S 1 
   1       0.3261487680      1.0000000000
 S 1 
   1       0.1811937600      1.0000000000
 S 1 
   1       0.1006632000      1.0000000000
 S 1 
   1       0.0559240000      1.0000000000
 P 1 
   1       2.0286240000      1.0000000000
 P 1 
   1       1.0143120000      1.0000000000
 P 1 
   1       0.5071560000      1.0000000000
 P 1 
   1       0.2535780000      1.0000000000
 P 1 
   1       0.1267890000      1.0000000000
 D 1 
   1       2.1046197920      1.0000000000
 D 1 
   1       0.9566453600      1.0000000000
 D 1 
   1       0.4348388000      1.0000000000
 D 1 
   1       0.1976540000      1.0000000000
 F 1 
   1       1.8869562800      1.0000000000
 F 1 
   1       0.8577074000      1.0000000000
 F 1 
   1       0.3898670000      1.0000000000
  end;

 # Auxiliary/C basis set for element : Cu
 NewAuxCGTO Cu
 S 1 
   1   12815.8936556437      1.0000000000
 S 1 
   1    7119.9409198021      1.0000000000
 S 1 
   1    3955.5227332234      1.0000000000
 S 1 
   1    2197.5126295685      1.0000000000
 S 1 
   1    1220.8403497603      1.0000000000
 S 1 
   1     678.2446387557      1.0000000000
 S 1 
   1     376.8025770865      1.0000000000
 S 1 
   1     209.3347650481      1.0000000000
 S 1 
   1     116.2970916934      1.0000000000
 S 1 
   1      64.6094953852      1.0000000000
 S 1 
   1      35.8941641029      1.0000000000
 S 1 
   1      19.9412022794      1.0000000000
 S 1 
   1      11.0784457108      1.0000000000
 S 1 
   1       6.1546920615      1.0000000000
 S 1 
   1       3.4192733675      1.0000000000
 S 1 
   1       1.8995963153      1.0000000000
 S 1 
   1       1.0553312863      1.0000000000
 S 1 
   1       0.5862951590      1.0000000000
 S 1 
   1       0.3257195328      1.0000000000
 S 1 
   1       0.1809552960      1.0000000000
 S 1 
   1       0.1005307200      1.0000000000
 S 1 
   1       0.0558504000      1.0000000000
 S 1 
   1       0.0310280000      1.0000000000
 P 1 
   1    3281.6792962385      1.0000000000
 P 1 
   1    1823.1551645769      1.0000000000
 P 1 
   1    1012.8639803205      1.0000000000
 P 1 
   1     562.7022112892      1.0000000000
 P 1 
   1     312.6123396051      1.0000000000
 P 1 
   1     173.6735220028      1.0000000000
 P 1 
   1      96.4852900016      1.0000000000
 P 1 
   1      53.6029388898      1.0000000000
 P 1 
   1      29.7794104943      1.0000000000
 P 1 
   1      16.5441169413      1.0000000000
 P 1 
   1       9.1911760785      1.0000000000
 P 1 
   1       5.1062089325      1.0000000000
 P 1 
   1       2.8367827403      1.0000000000
 P 1 
   1       1.5759904113      1.0000000000
 P 1 
   1       0.8755502285      1.0000000000
 P 1 
   1       0.4864167936      1.0000000000
 P 1 
   1       0.2702315520      1.0000000000
 P 1 
   1       0.1501286400      1.0000000000
 P 1 
   1       0.0834048000      1.0000000000
 P 1 
   1       0.0463360000      1.0000000000
 D 1 
   1    1347.4833218853      1.0000000000
 D 1 
   1     748.6018454918      1.0000000000
 D 1 
   1     415.8899141621      1.0000000000
 D 1 
   1     231.0499523123      1.0000000000
 D 1 
   1     128.3610846179      1.0000000000
 D 1 
   1      71.3117136766      1.0000000000
 D 1 
   1      39.6176187092      1.0000000000
 D 1 
   1      22.0097881718      1.0000000000
 D 1 
   1      12.2276600954      1.0000000000
 D 1 
   1       6.7931444975      1.0000000000
 D 1 
   1       3.7739691653      1.0000000000
 D 1 
   1       2.0966495363      1.0000000000
 D 1 
   1       1.1648052979      1.0000000000
 D 1 
   1       0.6471140544      1.0000000000
 D 1 
   1       0.3595078080      1.0000000000
 D 1 
   1       0.1997265600      1.0000000000
 D 1 
   1       0.1109592000      1.0000000000
 D 1 
   1       0.0616440000      1.0000000000
 F 1 
   1    1089.9683674044      1.0000000000
 F 1 
   1     605.5379818913      1.0000000000
 F 1 
   1     336.4099899396      1.0000000000
 F 1 
   1     186.8944388553      1.0000000000
 F 1 
   1     103.8302438085      1.0000000000
 F 1 
   1      57.6834687825      1.0000000000
 F 1 
   1      32.0463715458      1.0000000000
 F 1 
   1      17.8035397477      1.0000000000
 F 1 
   1       9.8908554154      1.0000000000
 F 1 
   1       5.4949196752      1.0000000000
 F 1 
   1       3.0527331529      1.0000000000
 F 1 
   1       1.6959628627      1.0000000000
 F 1 
   1       0.9422015904      1.0000000000
 F 1 
   1       0.5234453280      1.0000000000
 F 1 
   1       0.2908029600      1.0000000000
 F 1 
   1       0.1615572000      1.0000000000
 F 1 
   1       0.0897540000      1.0000000000
 G 1 
   1     136.3487739404      1.0000000000
 G 1 
   1      75.7493188558      1.0000000000
 G 1 
   1      42.0829549199      1.0000000000
 G 1 
   1      23.3794193999      1.0000000000
 G 1 
   1      12.9885663333      1.0000000000
 G 1 
   1       7.2158701852      1.0000000000
 G 1 
   1       4.0088167695      1.0000000000
 G 1 
   1       2.2271204275      1.0000000000
 G 1 
   1       1.2372891264      1.0000000000
 G 1 
   1       0.6873828480      1.0000000000
 G 1 
   1       0.3818793600      1.0000000000
 G 1 
   1       0.2121552000      1.0000000000
 G 1 
   1       0.1178640000      1.0000000000
 H 1 
   1       5.8747580812      1.0000000000
 H 1 
   1       2.5542426440      1.0000000000
 H 1 
   1       1.1105402800      1.0000000000
 H 1 
   1       0.4828436000      1.0000000000
 H 1 
   1       0.2099320000      1.0000000000
  end;

 # Auxiliary/C basis set for element : Se
 NewAuxCGTO Se
 S 1 
   1   14428.7846939293      1.0000000000
 S 1 
   1    8015.9914966274      1.0000000000
 S 1 
   1    4453.3286092374      1.0000000000
 S 1 
   1    2474.0714495763      1.0000000000
 S 1 
   1    1374.4841386535      1.0000000000
 S 1 
   1     763.6022992520      1.0000000000
 S 1 
   1     424.2234995844      1.0000000000
 S 1 
   1     235.6797219913      1.0000000000
 S 1 
   1     130.9331788841      1.0000000000
 S 1 
   1      72.7406549356      1.0000000000
 S 1 
   1      40.4114749642      1.0000000000
 S 1 
   1      22.4508194246      1.0000000000
 S 1 
   1      12.4726774581      1.0000000000
 S 1 
   1       6.9292652545      1.0000000000
 S 1 
   1       3.8495918081      1.0000000000
 S 1 
   1       2.1386621156      1.0000000000
 S 1 
   1       1.1881456198      1.0000000000
 S 1 
   1       0.6600808999      1.0000000000
 S 1 
   1       0.3667116110      1.0000000000
 S 1 
   1       0.2037286728      1.0000000000
 S 1 
   1       0.1131825960      1.0000000000
 S 1 
   1       0.0628792200      1.0000000000
 P 1 
   1    4453.3286092374      1.0000000000
 P 1 
   1    2474.0714495763      1.0000000000
 P 1 
   1    1374.4841386535      1.0000000000
 P 1 
   1     763.6022992520      1.0000000000
 P 1 
[...]
  X      -0.3137232    0.8134263   -0.4898116
  Y       0.4359279    0.5816648    0.6867554
  Z       0.8435310    0.0019285   -0.5370770

Note: Tensor is right-handed


 Quadrupole tensor eigenvalues (in MHz;Q= 0.0029 I=  1.0)
  e**2qQ            =     0.214530 MHz 
  e**2qQ/(4I*(2I-1))=     0.053633 MHz 
  eta               =     0.092656
  NOTE: the diagonal representation of the SH term I*Q*I = e**2qQ/(4I(2I-1))*[-(1-eta),-(1+eta),2]

 RHO(0)=      0.476810025 a.u.**-3

 -----------------------------------------------------------
 Nucleus  16H : A:ISTP=    1 I=  0.5 P=533.5514 MHz/au**3
                Q:ISTP=    2 I=  1.0 Q=  0.0029 barn     
 -----------------------------------------------------------
 Solving for nuclear perturbation:
Forming RHS of the CP-SCF equations         ... 
Calc. nucleus orbit integrals (SHARK)       ... done

Forming final perturbed densities           ... done
Transforming perturbed density to AO basis  ... done

 Raw HFC matrix (all values in MHz): 
 -----------------------------------
                 1.1768              -0.5890              -0.0556
                -0.5772               1.4869               0.0960
                -0.0682               0.0747               0.9775

 A(FC)           1.2369               1.2369               1.2369
 A(SD)          -0.4840              -0.2404               0.7245
 A(ORB+DIA)     -0.0240              -0.0309              -0.0148    A(PC) =  -0.0232
 A(ORB)         -0.0239              -0.0307              -0.0150    A(PC) =  -0.0232
 A(DIA)         -0.0001              -0.0002               0.0002    A(PC) =  -0.0000
             ----------           ----------           ----------
 A(Tot)          0.7289               0.9656               1.9467    A(iso)=    1.2137
 Orientation: 
  X           0.7873098           -0.1144597           -0.6058401
  Y           0.6138301            0.0531877            0.7876444
  Z          -0.0579303           -0.9920031            0.1121340

Notes:  (1) The A matrix conforms to the "SAI" spin Hamiltonian convention.
        (2) Tensor is right-handed.

 Raw EFG matrix (all values in a.u.**-3):
 -----------------------------------
            -0.0531      -0.1702      -0.1221
            -0.1702       0.0641       0.1713
            -0.1221       0.1713      -0.0110

 V(El)       0.6326       0.8872      -1.5198
 V(Nuc)     -0.7776      -1.0617       1.8393
         ----------   ----------   ----------
 V(Tot)     -0.1449      -0.1745       0.3195 
 Orientation: 
  X      -0.3137232    0.8134263    0.4898116
  Y       0.4359279    0.5816648   -0.6867554
  Z      -0.8435310   -0.0019285   -0.5370770

Note: Tensor is right-handed


 Quadrupole tensor eigenvalues (in MHz;Q= 0.0029 I=  1.0)
  e**2qQ            =     0.214530 MHz 
  e**2qQ/(4I*(2I-1))=     0.053633 MHz 
  eta               =     0.092656
  NOTE: the diagonal representation of the SH term I*Q*I = e**2qQ/(4I(2I-1))*[-(1-eta),-(1+eta),2]

 RHO(0)=      0.476810025 a.u.**-3

 -----------------------------------------------------------
 Nucleus  20H : A:ISTP=    1 I=  0.5 P=533.5514 MHz/au**3
                Q:ISTP=    2 I=  1.0 Q=  0.0029 barn     
 -----------------------------------------------------------
 Solving for nuclear perturbation:
Forming RHS of the CP-SCF equations         ... 
Calc. nucleus orbit integrals (SHARK)       ... done

Forming final perturbed densities           ... done
Transforming perturbed density to AO basis  ... done

 Raw HFC matrix (all values in MHz): 
 -----------------------------------
                 2.2368              -1.7389              -0.4803
                -1.7263               3.4092               0.8216
                -0.5133               0.7945               2.5504

 A(FC)           2.7614               2.7614               2.7614
 A(SD)          -1.6821              -0.5266               2.2087
 A(ORB+DIA)     -0.0885              -0.0447               0.0453    A(PC) =  -0.0293
 A(ORB)         -0.0879              -0.0440               0.0448    A(PC) =  -0.0291
 A(DIA)         -0.0006              -0.0007               0.0005    A(PC) =  -0.0002
             ----------           ----------           ----------
 A(Tot)          0.9908               2.1901               5.0155    A(iso)=    2.7321
 Orientation: 
  X           0.7997460           -0.2652680           -0.5385528
  Y           0.5965521            0.2505552            0.7624616
  Z          -0.0673195           -0.9310505            0.3586267

Notes:  (1) The A matrix conforms to the "SAI" spin Hamiltonian convention.
        (2) Tensor is right-handed.

 Raw EFG matrix (all values in a.u.**-3):
 -----------------------------------
            -0.1661      -0.0139       0.0000
            -0.0139      -0.1567       0.0012
             0.0000       0.0012       0.3228

 V(El)       0.0468       1.1692      -1.2160
 V(Nuc)     -0.1935      -1.3453       1.5388
         ----------   ----------   ----------
 V(Tot)     -0.1467      -0.1761       0.3228 
 Orientation: 
  X      -0.5821658    0.8130701   -0.0000120
  Y       0.8130677    0.5821640   -0.0024283
  Z      -0.0019673   -0.0014235   -0.9999971

Note: Tensor is right-handed


 Quadrupole tensor eigenvalues (in MHz;Q= 0.0029 I=  1.0)
  e**2qQ            =     0.216769 MHz 
  e**2qQ/(4I*(2I-1))=     0.054192 MHz 
  eta               =     0.091104
  NOTE: the diagonal representation of the SH term I*Q*I = e**2qQ/(4I(2I-1))*[-(1-eta),-(1+eta),2]

 RHO(0)=      0.484158619 a.u.**-3

 -----------------------------------------------------------
 Nucleus  22H : A:ISTP=    1 I=  0.5 P=533.5514 MHz/au**3
                Q:ISTP=    2 I=  1.0 Q=  0.0029 barn     
 -----------------------------------------------------------
 Solving for nuclear perturbation:
Forming RHS of the CP-SCF equations         ... 
Calc. nucleus orbit integrals (SHARK)       ... done

Forming final perturbed densities           ... done
Transforming perturbed density to AO basis  ... done

 Raw HFC matrix (all values in MHz): 
 -----------------------------------
                 2.3462              -1.6422               0.5065
                -1.7094               3.4191              -0.7841
                 0.4816              -0.7386               2.5866

 A(FC)           2.7614               2.7614               2.7614
 A(SD)          -1.6825              -0.5263               2.2087
 A(ORB+DIA)      0.0422               0.0111               0.0142    A(PC) =   0.0225
 A(ORB)          0.0427               0.0118               0.0137    A(PC) =   0.0227
 A(DIA)         -0.0006              -0.0007               0.0005    A(PC) =  -0.0002
             ----------           ----------           ----------
 A(Tot)          1.1212               2.2463               4.9844    A(iso)=    2.7840
 Orientation: 
  X           0.8000867           -0.2548042            0.5430803
  Y           0.5978010            0.2632755           -0.7571790
  Z           0.0499526            0.9304627            0.3629654

Notes:  (1) The A matrix conforms to the "SAI" spin Hamiltonian convention.
        (2) Tensor is right-handed.

 Raw EFG matrix (all values in a.u.**-3):
 -----------------------------------
            -0.1661      -0.0139      -0.0000
            -0.0139      -0.1567      -0.0012
            -0.0000      -0.0012       0.3228

 V(El)       0.0468       1.1692      -1.2160
 V(Nuc)     -0.1935      -1.3453       1.5388
         ----------   ----------   ----------
 V(Tot)     -0.1467      -0.1761       0.3228 
 Orientation: 
  X      -0.5821658    0.8130701    0.0000120
  Y       0.8130677    0.5821640    0.0024283
  Z       0.0019673    0.0014235   -0.9999971

Note: Tensor is right-handed


 Quadrupole tensor eigenvalues (in MHz;Q= 0.0029 I=  1.0)
  e**2qQ            =     0.216769 MHz 
  e**2qQ/(4I*(2I-1))=     0.054192 MHz 
  eta               =     0.091104
  NOTE: the diagonal representation of the SH term I*Q*I = e**2qQ/(4I(2I-1))*[-(1-eta),-(1+eta),2]

 RHO(0)=      0.484158619 a.u.**-3

 -----------------------------------------------------------
 Nucleus  23H : A:ISTP=    1 I=  0.5 P=533.5514 MHz/au**3
                Q:ISTP=    2 I=  1.0 Q=  0.0029 barn     
 -----------------------------------------------------------
 Solving for nuclear perturbation:
Forming RHS of the CP-SCF equations         ... 
Calc. nucleus orbit integrals (SHARK)       ... done

Forming final perturbed densities           ... done
Transforming perturbed density to AO basis  ... done

 Raw HFC matrix (all values in MHz): 
 -----------------------------------
                 1.1768              -0.5890              -0.0556
                -0.5772               1.4869               0.0960
                -0.0682               0.0746               0.9773

 A(FC)           1.2369               1.2369               1.2369
 A(SD)          -0.4841              -0.2404               0.7245
 A(ORB+DIA)     -0.0240              -0.0311              -0.0148    A(PC) =  -0.0233
 A(ORB)         -0.0239              -0.0309              -0.0150    A(PC) =  -0.0233
 A(DIA)         -0.0001              -0.0002               0.0002    A(PC) =  -0.0000
             ----------           ----------           ----------
 A(Tot)          0.7289               0.9654               1.9466    A(iso)=    1.2137
 Orientation: 
  X           0.7873217           -0.1142412           -0.6058659
  Y           0.6138387            0.0533168            0.7876289
  Z          -0.0576769           -0.9920213            0.1121032

Notes:  (1) The A matrix conforms to the "SAI" spin Hamiltonian convention.
        (2) Tensor is right-handed.

 Raw EFG matrix (all values in a.u.**-3):
 -----------------------------------
            -0.0531      -0.1702      -0.1221
            -0.1702       0.0641       0.1713
            -0.1221       0.1713      -0.0110

 V(El)       0.6326       0.8872      -1.5198
 V(Nuc)     -0.7776      -1.0617       1.8393
         ----------   ----------   ----------
 V(Tot)     -0.1449      -0.1745       0.3195 
 Orientation: 
  X      -0.3137232    0.8134263    0.4898116
  Y       0.4359279    0.5816648   -0.6867554
  Z      -0.8435310   -0.0019285   -0.5370770

Note: Tensor is right-handed


 Quadrupole tensor eigenvalues (in MHz;Q= 0.0029 I=  1.0)
  e**2qQ            =     0.214530 MHz 
  e**2qQ/(4I*(2I-1))=     0.053633 MHz 
  eta               =     0.092656
  NOTE: the diagonal representation of the SH term I*Q*I = e**2qQ/(4I(2I-1))*[-(1-eta),-(1+eta),2]

 RHO(0)=      0.476810025 a.u.**-3

 -----------------------------------------------------------
 Nucleus  24H : A:ISTP=    1 I=  0.5 P=533.5514 MHz/au**3
                Q:ISTP=    2 I=  1.0 Q=  0.0029 barn     
 -----------------------------------------------------------
 Solving for nuclear perturbation:
Forming RHS of the CP-SCF equations         ... 
Calc. nucleus orbit integrals (SHARK)       ... done

Forming final perturbed densities           ... done
Transforming perturbed density to AO basis  ... done

 Raw HFC matrix (all values in MHz): 
 -----------------------------------
                 1.2123              -0.5645               0.0964
                -0.5796               1.4900              -0.0811
                 0.0874              -0.1274               1.0486

 A(FC)           1.2369               1.2369               1.2369
 A(SD)          -0.4820              -0.2428               0.7248
 A(ORB+DIA)      0.0085               0.0326              -0.0011    A(PC) =   0.0134
 A(ORB)          0.0086               0.0328              -0.0013    A(PC) =   0.0134
 A(DIA)         -0.0001              -0.0002               0.0002    A(PC) =  -0.0000
             ----------           ----------           ----------
 A(Tot)          0.7634               1.0268               1.9607    A(iso)=    1.2503
 Orientation: 
  X           0.7898550           -0.0083236            0.6132372
  Y           0.6059219            0.1651579           -0.7781912
  Z          -0.0948036            0.9862320            0.1354943

Notes:  (1) The A matrix conforms to the "SAI" spin Hamiltonian convention.
        (2) Tensor is right-handed.

 Raw EFG matrix (all values in a.u.**-3):
 -----------------------------------
            -0.0531      -0.1702       0.1221
            -0.1702       0.0641      -0.1713
             0.1221      -0.1713      -0.0110

 V(El)       0.6326       0.8872      -1.5198
 V(Nuc)     -0.7776      -1.0617       1.8393
         ----------   ----------   ----------
 V(Tot)     -0.1449      -0.1745       0.3195 
 Orientation: 
  X      -0.3137232    0.8134263   -0.4898116
  Y       0.4359279    0.5816648    0.6867554
  Z       0.8435310    0.0019285   -0.5370770

Note: Tensor is right-handed


 Quadrupole tensor eigenvalues (in MHz;Q= 0.0029 I=  1.0)
  e**2qQ            =     0.214530 MHz 
  e**2qQ/(4I*(2I-1))=     0.053633 MHz 
  eta               =     0.092656
  NOTE: the diagonal representation of the SH term I*Q*I = e**2qQ/(4I(2I-1))*[-(1-eta),-(1+eta),2]

 RHO(0)=      0.476810025 a.u.**-3

 -----------------------------------------------------------
 Nucleus   0Cu: A:ISTP=   63 I=  1.5 P=141.6005 MHz/au**3
                Q:ISTP=   63 I=  1.5 Q= -0.2200 barn     
 -----------------------------------------------------------
 Solving for nuclear perturbation:
Forming RHS of the CP-SCF equations         ... 
Calc. nucleus orbit integrals (SHARK)       ... done

Forming final perturbed densities           ... done
Transforming perturbed density to AO basis  ... done

 Raw HFC matrix (all values in MHz): 
 -----------------------------------
              -239.4527            -190.3866              -1.1068
              -184.5337            -199.6541              -0.3385
                -7.7343              14.3078             -39.3046

 A(FC)        -195.4824            -195.4824            -195.4824
 A(SD)         138.7546             139.5926            -278.3472
 A(ORB+DIA)     26.0160              16.2459              65.7738    A(PC) =  36.0119
 A(ORB)         26.0157              16.2467              65.7759    A(PC) =  36.0128
 A(DIA)          0.0002              -0.0008              -0.0021    A(PC) =  -0.0009
             ----------           ----------           ----------
 A(Tot)        -30.7117             -39.6439            -408.0558    A(iso)= -159.4705
 Orientation: 
  X           0.6692116           -0.0115469            0.7429822
  Y          -0.7427925            0.0170231            0.6693053
  Z          -0.0203763           -0.9997884            0.0028151

Notes:  (1) The A matrix conforms to the "SAI" spin Hamiltonian convention.
        (2) Tensor is right-handed.

 Raw EFG matrix (all values in a.u.**-3):
 -----------------------------------
            -0.7508      -1.3281       0.0000
            -1.3281      -0.4788      -0.0000
             0.0000      -0.0000       1.2296

 V(El)      -0.5800       0.8451      -0.2651
 V(Nuc)      1.3003       0.3845      -1.6848
         ----------   ----------   ----------
 V(Tot)      0.7203       1.2296      -1.9498 
 Orientation: 
  X      -0.6701296    0.0000000    0.7422441
  Y       0.7422441   -0.0000000    0.6701296
  Z       0.0000000    1.0000000   -0.0000000

Note: Tensor is right-handed


 Quadrupole tensor eigenvalues (in MHz;Q=-0.2200 I=  1.5)
  e**2qQ            =   100.791451 MHz 
  e**2qQ/(4I*(2I-1))=     8.399288 MHz 
  eta               =     0.261209
  NOTE: the diagonal representation of the SH term I*Q*I = e**2qQ/(4I(2I-1))*[-(1-eta),-(1+eta),2]

 RHO(0)=  37592.967965294 a.u.**-3


--------------------------------------------------------------------------------
----------------------------------------------------------------------------
                           ORCA EULER ANGLE PROGRAM
----------------------------------------------------------------------------

Only g-tensor available        -->  using g-tensor as reference tensor

Reference tensor               ...  g

g-tensor ordering              ...  |g_min> --> |gx>
                                    |g_mid> --> |gy>
                                    |g_max> --> |gz>

A- and EFG-tensor ordering     ...  the axes |Ax>, |Qx>, |Ay>, etc. are assigned
                                    such that the Euler rotation is minimal. You
                                    can find the respective eigenvalues as Ax,
                                    EFGx, Ay, etc. in the tables below.
                                    The relation of |Ax>, |Ay>,  etc. to Amin, Amid, etc.
                                    (as printed in the ORCA EPR/NMR CALCULATION Output)
                                    is obtained in the detailed printout.

Euler rotation around          ...  z - y - z
   First rotation              -->  by alpha around z
   Second rotation             -->  by beta around y'
   Third rotation              -->  by gamma around z''
   Positive / Negative angle   -->  clockwise / counterclockwise rotation

Plot EFG-tensors                    (-)
Plot HFC-tensors                    (-)
Detailed Printout                   (-)

-------------------------------------------------------------------------
          Euler rotation of hyperfine tensor to g-tensor
-------------------------------------------------------------------------

-------------------------------------------------------------------
 Atom  |   Alpha    Beta    Gamma   |   Ax       Ay       Az 
       |          [degrees]         |           [MHz]         
-------------------------------------------------------------------
 12H     -137.9     17.9    155.4       2.25     4.98     1.12
 14H      159.1     21.8    171.7       5.02     2.19     0.99
 15H     -143.9     22.3    176.1       1.03     1.96     0.76
 16H      143.3     20.5    172.9       1.95     0.97     0.73
 20H      159.1     21.8    171.7       5.02     2.19     0.99
 22H     -137.8     17.9    155.3       2.25     4.98     1.12
 23H      143.4     20.5    172.9       1.95     0.97     0.73
 24H     -144.0     22.3    176.2       1.03     1.96     0.76
  0Cu    -133.0     15.1    173.8     -39.64   -30.71  -408.06
-------------------------------------------------------------------


-------------------------------------------------------------------------------
    Euler rotation of Electric Field Gradient (EFG) tensor to g-tensor
-------------------------------------------------------------------------------

-------------------------------------------------------------------
 Atom  |   Alpha    Beta    Gamma  |   EFGx     EFGy     EFGz
       |          [degrees]        |         [a.u.**-3]       
-------------------------------------------------------------------
 12H     -121.8     20.3    161.0      0.32    -0.15    -0.18
 14H     -122.4     20.4    161.4      0.32    -0.15    -0.18
 15H     -154.3     20.3    160.9     -0.14     0.32    -0.17
 16H     -179.8     20.4    161.5      0.32    -0.14    -0.17
 20H     -122.4     20.4    161.4      0.32    -0.15    -0.18
 22H     -121.8     20.3    161.0      0.32    -0.15    -0.18
 23H     -179.8     20.4    161.5      0.32    -0.14    -0.17
 24H     -154.3     20.3    160.9     -0.14     0.32    -0.17
  0Cu    -134.7     15.2    174.4      1.23     0.72    -1.95
-------------------------------------------------------------------


Maximum memory used throughout the entire EPRNMR-calculation: 788.9 MB

Timings for individual modules:

Sum of individual times         ...    61706.133 sec (=1028.436 min)
GTO integral calculation        ...       77.832 sec (=   1.297 min)   0.1 %
Spin-Orbit-Coupling Matrices    ...      893.127 sec (=  14.885 min)   1.4 %
SCF iterations                  ...     2535.071 sec (=  42.251 min)   4.1 %
EPR/NMR calculation             ...    58200.103 sec (= 970.002 min)  94.3 %
                             ****ORCA TERMINATED NORMALLY****
TOTAL RUN TIME: 0 days 17 hours 13 minutes 30 seconds 226 msec
