
                                 *****************
                                 * O   R   C   A *
                                 *****************

                                            #,                                       
                                            ###                                      
                                            ####                                     
                                            #####                                    
                                            ######                                   
                                           ########,                                 
                                     ,,################,,,,,                         
                               ,,#################################,,                 
                          ,,##########################################,,             
                       ,#########################################, ''#####,          
                    ,#############################################,,   '####,        
                  ,##################################################,,,,####,       
                ,###########''''           ''''###############################       
              ,#####''   ,,,,##########,,,,          '''####'''          '####       
            ,##' ,,,,###########################,,,                        '##       
           ' ,,###''''                  '''############,,,                           
         ,,##''                                '''############,,,,        ,,,,,,###''
      ,#''                                            '''#######################'''  
     '                                                          ''''####''''         
             ,#######,   #######,   ,#######,      ##                                
            ,#'     '#,  ##    ##  ,#'     '#,    #''#        ######   ,####,        
            ##       ##  ##   ,#'  ##            #'  '#       #        #'  '#        
            ##       ##  #######   ##           ,######,      #####,   #    #        
            '#,     ,#'  ##    ##  '#,     ,#' ,#      #,         ##   #,  ,#        
             '#######'   ##     ##  '#######'  #'      '#     #####' # '####'        



                  #######################################################
                  #                        -***-                        #
                  #          Department of theory and spectroscopy      #
                  #    Directorship and core code : Frank Neese         #
                  #        Max Planck Institute fuer Kohlenforschung    #
                  #                Kaiser Wilhelm Platz 1               #
                  #                 D-45470 Muelheim/Ruhr               #
                  #                      Germany                        #
                  #                                                     #
                  #                  All rights reserved                #
                  #                        -***-                        #
                  #######################################################


                         Program Version 5.0.4 -  RELEASE  -


 With contributions from (in alphabetic order):
   Daniel Aravena         : Magnetic Suceptibility
   Michael Atanasov       : Ab Initio Ligand Field Theory (pilot matlab implementation)
   Alexander A. Auer      : GIAO ZORA, VPT2 properties, NMR spectrum
   Ute Becker             : Parallelization
   Giovanni Bistoni       : ED, misc. LED, open-shell LED, HFLD
   Martin Brehm           : Molecular dynamics
   Dmytro Bykov           : SCF Hessian
   Vijay G. Chilkuri      : MRCI spin determinant printing, contributions to CSF-ICE
   Dipayan Datta          : RHF DLPNO-CCSD density
   Achintya Kumar Dutta   : EOM-CC, STEOM-CC
   Dmitry Ganyushin       : Spin-Orbit,Spin-Spin,Magnetic field MRCI
   Miquel Garcia          : C-PCM and meta-GGA Hessian, CC/C-PCM, Gaussian charge scheme
   Yang Guo               : DLPNO-NEVPT2, F12-NEVPT2, CIM, IAO-localization
   Andreas Hansen         : Spin unrestricted coupled pair/coupled cluster methods
   Benjamin Helmich-Paris : MC-RPA, TRAH-SCF, COSX integrals
   Lee Huntington         : MR-EOM, pCC
   Robert Izsak           : Overlap fitted RIJCOSX, COSX-SCS-MP3, EOM
   Marcus Kettner         : VPT2
   Christian Kollmar      : KDIIS, OOCD, Brueckner-CCSD(T), CCSD density, CASPT2, CASPT2-K
   Simone Kossmann        : Meta GGA functionals, TD-DFT gradient, OOMP2, MP2 Hessian
   Martin Krupicka        : Initial AUTO-CI
   Lucas Lang             : DCDCAS
   Marvin Lechner         : AUTO-CI (C++ implementation), FIC-MRCC
   Dagmar Lenk            : GEPOL surface, SMD
   Dimitrios Liakos       : Extrapolation schemes; Compound Job, initial MDCI parallelization
   Dimitrios Manganas     : Further ROCIS development; embedding schemes
   Dimitrios Pantazis     : SARC Basis sets
   Anastasios Papadopoulos: AUTO-CI, single reference methods and gradients
   Taras Petrenko         : DFT Hessian,TD-DFT gradient, ASA, ECA, R-Raman, ABS, FL, XAS/XES, NRVS
   Peter Pinski           : DLPNO-MP2, DLPNO-MP2 Gradient
   Christoph Reimann      : Effective Core Potentials
   Marius Retegan         : Local ZFS, SOC
   Christoph Riplinger    : Optimizer, TS searches, QM/MM, DLPNO-CCSD(T), (RO)-DLPNO pert. Triples
   Tobias Risthaus        : Range-separated hybrids, TD-DFT gradient, RPA, STAB
   Michael Roemelt        : Original ROCIS implementation
   Masaaki Saitow         : Open-shell DLPNO-CCSD energy and density
   Barbara Sandhoefer     : DKH picture change effects
   Avijit Sen             : IP-ROCIS
   Kantharuban Sivalingam : CASSCF convergence, NEVPT2, FIC-MRCI
   Bernardo de Souza      : ESD, SOC TD-DFT
   Georgi Stoychev        : AutoAux, RI-MP2 NMR, DLPNO-MP2 response
   Willem Van den Heuvel  : Paramagnetic NMR
   Boris Wezisla          : Elementary symmetry handling
   Frank Wennmohs         : Technical directorship


 We gratefully acknowledge several colleagues who have allowed us to
 interface, adapt or use parts of their codes:
   Stefan Grimme, W. Hujo, H. Kruse, P. Pracht,  : VdW corrections, initial TS optimization,
                  C. Bannwarth, S. Ehlert          DFT functionals, gCP, sTDA/sTD-DF
   Ed Valeev, F. Pavosevic, A. Kumar             : LibInt (2-el integral package), F12 methods
   Garnet Chan, S. Sharma, J. Yang, R. Olivares  : DMRG
   Ulf Ekstrom                                   : XCFun DFT Library
   Mihaly Kallay                                 : mrcc  (arbitrary order and MRCC methods)
   Jiri Pittner, Ondrej Demel                    : Mk-CCSD
   Frank Weinhold                                : gennbo (NPA and NBO analysis)
   Christopher J. Cramer and Donald G. Truhlar   : smd solvation model
   Lars Goerigk                                  : TD-DFT with DH, B97 family of functionals
   V. Asgeirsson, H. Jonsson                     : NEB implementation
   FAccTs GmbH                                   : IRC, NEB, NEB-TS, DLPNO-Multilevel, CI-OPT
                                                   MM, QMMM, 2- and 3-layer-ONIOM, Crystal-QMMM,
                                                   LR-CPCM, SF, NACMEs, symmetry and pop. for TD-DFT,
                                                   nearIR, NL-DFT gradient (VV10), updates on ESD,
                                                   ML-optimized integration grids
   S Lehtola, MJT Oliveira, MAL Marques          : LibXC Library
   Liviu Ungur et al                             : ANISO software


 Your calculation uses the libint2 library for the computation of 2-el integrals
 For citations please refer to: http://libint.valeyev.net

 Your ORCA version has been built with support for libXC version: 5.1.0
 For citations please refer to: https://tddft.org/programs/libxc/

 This ORCA versions uses:
   CBLAS   interface :  Fast vector & matrix operations
   LAPACKE interface :  Fast linear algebra routines
   SCALAPACK package :  Parallel linear algebra routines
   Shared memory     :  Shared parallel matrices
   BLAS/LAPACK       :  OpenBLAS 0.3.15  USE64BITINT DYNAMIC_ARCH NO_AFFINITY Prescott SINGLE_THREADED
        Core in use  :  Prescott
   Copyright (c) 2011-2014, The OpenBLAS Project


XCFun DFT library Copyright 2009-2010 Ulf Ekstrom and contributors.
See http://admol.org/xcfun for more information.
This is free software; see the source code for copying conditions.
There is ABSOLUTELY NO WARRANTY; not even for MERCHANTABILITY or FITNESS FOR A PARTICULAR PURPOSE.
For details see the documentation.
Scientific users of this library should cite U. Ekstrom, L. Visscher, R. Bast, A. J. Thorvaldsen and K. Ruud;
J.Chem.Theor.Comp. 2010, DOI: 10.1021/ct100117s
XCFun Version 0.99 

================================================================================

----- Orbital basis set information -----
Your calculation utilizes the basis: ANO-RCC-DZP
   H, He:       P.-O. Widmark, P.-A. Malmqvist, and B. O. Roos, Theor. Chim. Acta 77, 291 (1990).
   s block:     B. O. Roos, V. Veryazov and P.-O. Widmark, Theor. Chem. Acc. 111, 345 (2004).
   p block:     B. O. Roos, R. Lindh, P.-A. Malmqvist, V. Veryazov, and P.-O. Widmark, J. Phys. Chem. A 108, 2851 (2004).
   d block:     B. O. Roos, R. Lindh, P.-A. Malmqvist, V. Veryazov, and P.-O. Widmark, J. Phys. Chem. A 109, 6575 (2005).
   actinides:   B. O. Roos, R. Lindh, P.-A. Malmqvist, V. Veryazov, and P.-O. Widmark, Chem. Phys. Letters 409, 295 (2005).
   lanthanides: B. O. Roos, R. Lindh, P.-A. Malmqvist, V. Veryazov, P.-O. Widmark and A. C. Borin, J. Phys. Chem. A 112, 11431 (2008).

The basis set includes element-specific modifications.

Your calculation utilizes the basis: ANO-RCC-TZP
   H, He:       P.-O. Widmark, P.-A. Malmqvist, and B. O. Roos, Theor. Chim. Acta 77, 291 (1990).
   s block:     B. O. Roos, V. Veryazov and P.-O. Widmark, Theor. Chem. Acc. 111, 345 (2004).
   p block:     B. O. Roos, R. Lindh, P.-A. Malmqvist, V. Veryazov, and P.-O. Widmark, J. Phys. Chem. A 108, 2851 (2004).
   d block:     B. O. Roos, R. Lindh, P.-A. Malmqvist, V. Veryazov, and P.-O. Widmark, J. Phys. Chem. A 109, 6575 (2005).
   actinides:   B. O. Roos, R. Lindh, P.-A. Malmqvist, V. Veryazov, and P.-O. Widmark, Chem. Phys. Letters 409, 295 (2005).
   lanthanides: B. O. Roos, R. Lindh, P.-A. Malmqvist, V. Veryazov, P.-O. Widmark and A. C. Borin, J. Phys. Chem. A 112, 11431 (2008).

----- AuxJ basis set information -----
Your calculation utilizes the AutoAux generation procedure.
  G. L. Stoychev, A. A. Auer, F. Neese, J. Chem. Theory Comput. 13, 554 (2017)

----- AuxC basis set information -----
Your calculation utilizes the AutoAux generation procedure.
  G. L. Stoychev, A. A. Auer, F. Neese, J. Chem. Theory Comput. 13, 554 (2017)

----- AuxJK basis set information -----
Your calculation utilizes the AutoAux generation procedure.
  G. L. Stoychev, A. A. Auer, F. Neese, J. Chem. Theory Comput. 13, 554 (2017)

================================================================================
                                        WARNINGS
                       Please study these warnings very carefully!
================================================================================


Removing linear dependencies from the Orbital basis set:
  S-ok PCD(Thresh=Auto)-ok done ( 1.522 sec)
  Dim=575 Nullspace=0 Removed 0 shells / 0 basis functions

Removing linear dependencies from the AuxJ basis set:
  V-ok PCD(Thresh=Auto)-ok done (104.836 sec)
  Dim=4792 Nullspace=1 Removed 1 shells / 1 basis functions

Removing linear dependencies from the AuxC basis set:
  V-ok PCD(Thresh=Auto)-ok done (111.483 sec)
  Dim=4792 Nullspace=1 Removed 1 shells / 1 basis functions

Removing linear dependencies from the AuxJK basis set:
  V-ok PCD(Thresh=Auto)-ok done (108.594 sec)
  Dim=4792 Nullspace=1 Removed 1 shells / 1 basis functions


WARNING: Found flag for RIJCOSX approximation but no HF exchange needed!
  ===> : RIJCOSX  will be disabled and Split-RI-J is turned on

WARNING: your system is open-shell and RHF/RKS was chosen
  ===> : WILL SWITCH to UHF/UKS


WARNING: Minnesota functionals are quite sensitive to the integration grid.
         see SE Wheeler, KN Houk, JCTC 2010, 6, 395,
             N Mardirossian, M Head-Gordon, JCTC 2016, 12, 4303.
         DEFGRID3 seems to be a minimum grid for reliable results with these functionals!
  ===> : Please increase the integration grid!


INFO   : the flag for use of the SHARK integral package has been found!

================================================================================
                                       INPUT FILE
================================================================================
NAME = input_60.inp
|  1> ! RIJCOSX nofrozencore ReducedPop printbasis
|  2> ! M06L ano-rcc-dzp autoaux
|  3> 
|  4> %maxcore 7500
|  5> %basis
|  6> PCDTrimBas overlap
|  7> PCDTrimAuxJ Coulomb
|  8> PCDTrimAuxJK Coulomb
|  9> PCDTrimAuxC Coulomb
| 10> PCDThresh -1
| 11> end
| 12> 
| 13> %basis
| 14> newgto Cu "ano-rcc-tzp" end
| 15> newgto Se "ano-rcc-tzp" end
| 16> end
| 17> 
| 18> %pal
| 19> nprocs 8
| 20> end
| 21> 
| 22> % sym SymThresh 1e-2 end
| 23> * xyz -2 2 
| 24> Cu 0.0 0.0 0.0
| 25> Se -1.7059884011021549 -0.3364865000195929 -1.6075934584653164
| 26> C -0.9613681143746347 -1.0990874506587547 -2.8503734197955883
| 27> Se -1.3857390817316335 1.0708127735922388 1.5940713659068924
| 28> C -0.3896078520905884 1.413111788898684 2.847475695459036
| 29> Se 1.3857526732497745 -1.0707560318805085 -1.594097665123317
| 30> C 0.39115558621888497 -1.4066503264754047 -2.85047051872939
| 31> Se 1.7059752343189558 0.33643153148635424 1.6076189358312278
| 32> C 0.9598114608125581 1.0925887514871524 2.8533855019267214
| 33> C 1.6815726934561963 1.446035952414474 3.988472935398865
| 34> C -0.8848166134636297 2.055225186615119 3.9774077043752505
| 35> C -0.16525044668221578 2.402385459734993 5.100942956295651
| 36> H -1.9358210598742314 2.303764393525821 3.9643397117082455
| 37> C 1.1861391357288797 2.083803145885787 5.1058015881248116
| 38> H 2.731090881576706 1.190965165675606 3.9866611871661286
| 39> H -0.6485336963688333 2.9113702555827046 5.92833382431282
| 40> H 1.8361398925247512 2.307437158022883 5.945262101734747
| 41> C -1.684847915778239 -1.459709332466027 -3.9821365577501617
| 42> C 0.888095991950067 -2.041534475481711 -3.983753212188205
| 43> C -1.2022381677843454 -2.1510132175440533 -5.074651488854217
| 44> H -2.6950318256640022 -1.0404262588013977 -4.0564355637008065
| 45> C 0.18135308898468777 -2.3351603160595484 -5.132100041295608
| 46> H 1.8997701951078707 -2.4542691241225043 -3.894582272917695
| 47> H -1.7502769632418256 -1.9489776002919101 -6.111404525020525
| 48> H 0.562638701871642 -3.2699679516099303 -5.762126380775255
| 49> * 
| 50> 
| 51> % eprnmr
| 52> gtensor true
| 53> Nuclei = all H {aiso,adip,aorb,fgrad,rho}
| 54> Nuclei = all Cu {aiso,adip,aorb,fgrad,rho}
| 55> end
| 56> 
| 57>                          ****END OF INPUT****
================================================================================

------------------------------------------------------------------------------
                            SYMMETRY HANDLING SETUP
------------------------------------------------------------------------------

------------------
SYMMETRY DETECTION
------------------
The point group will now be determined using a tolerance of 1.0000e-02.
Splitting atom subsets according to nuclear charge, mass and basis set.
Splitting atom subsets according to distance from the molecule's center.
Identifying relative distance patterns of the atoms.
Splitting atom subsets according to atoms' relative distance patterns.
Bring atoms of each subset into input order.
The molecule is neither linear nor planar.
There is at least one atom subset not centered around the molecule's center.
The molecule does not have a center of inversion.
Analyzing the first atom subset for its symmetry.
The atoms of the selected subset form a disphenoid with scalene triangular faces.
Testing point group D2.
Test failed.
Testing point group C2.
Test failed.
Testing point group C2.
Test failed.
Testing point group C2.
Success!
This point group has been found:    C2
Largest non-degenerate subgroup:    C2


Mass-centered symmetry-perfected Cartesians (point group C2):

Atom          Symmetry-perfected Cartesians (x, y, z; au)
  0       0.000000000000    0.000000000000    0.000000042698
  1      -2.920081755917    0.698893006891   -3.318300466952
  2      -1.277711237958    0.291651447464   -5.908491386980
  3      -2.920054042859    0.699008789199    3.318300552350
  4      -1.274496083347    0.305084033010    5.908491472318
  5       2.920081755917   -0.698893006891   -3.318300466952
  6       1.277711237958   -0.291651447464   -5.908491386980
  7       2.920054042859   -0.699008789199    3.318300552350
  8       1.274496083347   -0.305084033010    5.908491472318
  9       2.423904972280   -0.579813957125    8.256011321100
 10      -2.423904972280    0.579813957125    8.256011321100
 11      -1.276406841847    0.303043521921   10.578489463998
 12      -4.407704455277    1.059540680877    8.240593045585
 13       1.276406841847   -0.303043521921   10.578489463998
 14       4.407704455277   -1.059540680877    8.240593045585
 15      -2.346433765167    0.575944198503   12.306044025401
 16       2.346433765167   -0.575944198503   12.306044025401
 17      -2.430693351806    0.551452805102   -8.256012180540
 18       2.430693351806   -0.551452805102   -8.256012180540
 19      -1.309757307632    0.163708703277  -10.578489378579
 20      -4.333021503181    1.371558379607   -8.240593904999
 21       1.309757307632   -0.163708703277  -10.578489378579
 22       4.333021503181   -1.371558379607   -8.240593904999
 23      -2.168547204471    1.319140026830  -12.306042995356
 24       2.168547204471   -1.319140026830  -12.306042995356


-----------------------------------------------
SYMMETRY-PERFECTED CARTESIAN COORDINATES (A.U.)
-----------------------------------------------
Warning (ORCA_SYM): Coordinates were not cleaned so far!

------------------
SYMMETRY REDUCTION
------------------
ORCA supports only abelian point groups.
It is now checked, if the determined point group is supported:
Point Group ( C2    ) is          ... supported

(Re)building abelian point group:
Creating Character Table          ... done
Making direct product table       ... done
Constructing symmetry operations  ... done
Creating atom transfer table      ... done
Creating asymmetric unit          ... done

---------------------
ASYMMETRIC UNIT IN C2
---------------------
  #  AT     MASS              COORDS (A.U.)             BAS
   0 Cu  63.5500   0.00000000   0.00000000   0.00000004   0
   1 Se  78.9600  -2.92008176   0.69889301  -3.31830047   0
   2 C   12.0110  -1.27771124   0.29165145  -5.90849139   0
   3 Se  78.9600  -2.92005404   0.69900879   3.31830055   0
   4 C   12.0110  -1.27449608   0.30508403   5.90849147   0
   9 C   12.0110   2.42390497  -0.57981396   8.25601132   0
  11 C   12.0110  -1.27640684   0.30304352  10.57848946   0
  12 H    1.0080  -4.40770446   1.05954068   8.24059305   0
  15 H    1.0080  -2.34643377   0.57594420  12.30604403   0
  17 C   12.0110  -2.43069335   0.55145281  -8.25601218   0
  19 C   12.0110  -1.30975731   0.16370870 -10.57848938   0
  20 H    1.0080  -4.33302150   1.37155838  -8.24059390   0
  23 H    1.0080  -2.16854720   1.31914003 -12.30604300   0

----------------------
SYMMETRY ADAPTED BASIS
----------------------
The coefficients for the symmetry adapted linear combinations (SALCS)
of basis functions will now be computed:
Number of basis functions         ...   575
Preparing memory                  ... done
Constructing Gamma(red)           ... done
Reducing Gamma(red)               ... done
Constructing SALCs                ... done
Checking SALC integrity           ... nothing suspicious
Normalizing SALCs                 ... done

Storing the symmetry object:
Symmetry file                     ... input_60.sym.tmp
Writing symmetry information      ... done

                       ****************************
                       * Single Point Calculation *
                       ****************************

---------------------------------
CARTESIAN COORDINATES (ANGSTROEM)
---------------------------------
  Cu     0.000000    0.000000    0.000000
  Se    -1.545241    0.369838   -1.755969
  C     -0.676136    0.154335   -3.126639
  Se    -1.545226    0.369900    1.755969
  C     -0.674434    0.161444    3.126639
  Se     1.545241   -0.369838   -1.755969
  C      0.676136   -0.154335   -3.126639
  Se     1.545226   -0.369900    1.755969
  C      0.674434   -0.161444    3.126639
  C      1.282675   -0.306824    4.368893
  C     -1.282675    0.306824    4.368893
  C     -0.675445    0.160364    5.597896
  H     -2.332457    0.560685    4.360734
  C      0.675445   -0.160364    5.597896
  H      2.332457   -0.560685    4.360734
  H     -1.241679    0.304777    6.512078
  H      1.241679   -0.304777    6.512078
  C     -1.286268    0.291816   -4.368893
  C      1.286268   -0.291816   -4.368893
  C     -0.693094    0.086631   -5.597895
  H     -2.292936    0.725797   -4.360734
  C      0.693094   -0.086631   -5.597895
  H      2.292936   -0.725797   -4.360734
  H     -1.147546    0.698059   -6.512077
  H      1.147546   -0.698059   -6.512077

----------------------------
CARTESIAN COORDINATES (A.U.)
----------------------------
  NO LB      ZA    FRAG     MASS         X           Y           Z
   0 Cu   29.0000    0    63.550    0.000000    0.000000    0.000000
   1 Se   34.0000    0    78.960   -2.920082    0.698893   -3.318300
   2 C     6.0000    0    12.011   -1.277711    0.291651   -5.908491
   3 Se   34.0000    0    78.960   -2.920054    0.699009    3.318301
   4 C     6.0000    0    12.011   -1.274496    0.305084    5.908491
   5 Se   34.0000    0    78.960    2.920082   -0.698893   -3.318300
   6 C     6.0000    0    12.011    1.277711   -0.291651   -5.908491
   7 Se   34.0000    0    78.960    2.920054   -0.699009    3.318301
   8 C     6.0000    0    12.011    1.274496   -0.305084    5.908491
   9 C     6.0000    0    12.011    2.423905   -0.579814    8.256011
  10 C     6.0000    0    12.011   -2.423905    0.579814    8.256011
  11 C     6.0000    0    12.011   -1.276407    0.303044   10.578489
  12 H     1.0000    0     1.008   -4.407704    1.059541    8.240593
  13 C     6.0000    0    12.011    1.276407   -0.303044   10.578489
  14 H     1.0000    0     1.008    4.407704   -1.059541    8.240593
  15 H     1.0000    0     1.008   -2.346434    0.575944   12.306044
  16 H     1.0000    0     1.008    2.346434   -0.575944   12.306044
  17 C     6.0000    0    12.011   -2.430693    0.551453   -8.256012
  18 C     6.0000    0    12.011    2.430693   -0.551453   -8.256012
  19 C     6.0000    0    12.011   -1.309757    0.163709  -10.578489
  20 H     1.0000    0     1.008   -4.333022    1.371558   -8.240594
  21 C     6.0000    0    12.011    1.309757   -0.163709  -10.578489
  22 H     1.0000    0     1.008    4.333022   -1.371558   -8.240594
  23 H     1.0000    0     1.008   -2.168547    1.319140  -12.306043
  24 H     1.0000    0     1.008    2.168547   -1.319140  -12.306043

--------------------------------
INTERNAL COORDINATES (ANGSTROEM)
--------------------------------
 Cu     0   0   0     0.000000000000     0.00000000     0.00000000
 Se     1   0   0     2.368116618136     0.00000000     0.00000000
 C      2   1   0     1.637229859734   104.70486391     0.00000000
 Se     1   2   3     2.368116618398    95.71945885   180.26271440
 C      4   1   2     1.637213625611   104.70501065   179.99820678
 Se     1   2   3     2.368116618154    84.28054116     0.26427060
 C      3   2   1     1.387052736083   123.14907136   359.04704662
 Se     1   2   3     2.368116618398   179.99849993   270.26366045
 C      5   4   1     1.386976000283   123.15471876     0.00000000
 C      9   5   4     1.390786713489   116.72154186   179.98942237
 C      5   4   1     1.390786711772   120.12373873   180.00987326
 C     11   5   4     1.378632360681   126.33645241   179.94635730
 H     11   5   4     1.080070764431   116.28861883   359.84343314
 C     10   9   5     1.378631466851   126.33643406   359.95578132
 H     10   9   5     1.080070745773   116.28861806   179.85256792
 H     12  11   5     1.084990262772   120.47202293   179.46794949
 H     14  10   9     1.084991755328   120.47198511   179.46646058
 C      3   2   1     1.390812340005   120.12459600   179.68643683
 C      7   3   2     1.390811745996   116.72347669   180.77998641
 C     18   3   2     1.380000762706   126.31278223   182.82069279
 H     18   3   2     1.096261907547   115.80581764    11.03743254
 C     19   7   3     1.380000762706   126.31286854     3.41748936
 H     19   7   3     1.096260023869   115.80548944   191.63609426
 H     20  18   3     1.189967129783   116.33579125   207.28676379
 H     22  19   7     1.190032445993   116.33385411   207.29680013

---------------------------
INTERNAL COORDINATES (A.U.)
---------------------------
 Cu     0   0   0     0.000000000000     0.00000000     0.00000000
 Se     1   0   0     4.475091861464     0.00000000     0.00000000
 C      2   1   0     3.093916053176   104.70486391     0.00000000
 Se     1   2   3     4.475091861959    95.71945885   180.26271440
 C      4   1   2     3.093885375129   104.70501065   179.99820678
 Se     1   2   3     4.475091861500    84.28054116     0.26427060
 C      3   2   1     2.621149804503   123.14907136   359.04704662
 Se     1   2   3     4.475091861959   179.99849993   270.26366045
 C      5   4   1     2.621004794856   123.15471876     0.00000000
 C      9   5   4     2.628205999190   116.72154186   179.98942237
 C      5   4   1     2.628205995946   120.12373873   180.00987326
 C     11   5   4     2.605237601049   126.33645241   179.94635730
 H     11   5   4     2.041037950030   116.28861883   359.84343314
 C     10   9   5     2.605235911955   126.33643406   359.95578132
 H     10   9   5     2.041037914771   116.28861806   179.85256792
 H     12  11   5     2.050334454610   120.47202293   179.46794949
 H     14  10   9     2.050337275133   120.47198511   179.46646058
 C      3   2   1     2.628254426287   120.12459600   179.68643683
 C      7   3   2     2.628253303774   116.72347669   180.77998641
 C     18   3   2     2.607823506116   126.31278223   182.82069279
 H     18   3   2     2.071634776314   115.80581764    11.03743254
 C     19   7   3     2.607823506116   126.31286854     3.41748936
 H     19   7   3     2.071631216679   115.80548944   191.63609426
 H     20  18   3     2.248711983659   116.33579125   207.28676379
 H     22  19   7     2.248835413407   116.33385411   207.29680013

---------------------
BASIS SET INFORMATION
---------------------
There are 4 groups of distinct atoms

 Group   1 Type Cu  : 126s75p30d12f4g contracted to 6s5p3d2f1g pattern {212121212121/1515151515/101010/66/4}
 Group   2 Type Se  : 120s85p33d8f2g contracted to 6s5p3d2f1g pattern {202020202020/1717171717/111111/44/2}
 Group   3 Type C   : 42s18p4d contracted to 3s2p1d pattern {141414/99/4}
 Group   4 Type H   : 24s8p3d contracted to 3s2p1d pattern {888/44/3}

Atom   0Cu   basis set group =>   1
Atom   1Se   basis set group =>   2
Atom   2C    basis set group =>   3
Atom   3Se   basis set group =>   2
Atom   4C    basis set group =>   3
Atom   5Se   basis set group =>   2
Atom   6C    basis set group =>   3
Atom   7Se   basis set group =>   2
Atom   8C    basis set group =>   3
Atom   9C    basis set group =>   3
Atom  10C    basis set group =>   3
Atom  11C    basis set group =>   3
Atom  12H    basis set group =>   4
Atom  13C    basis set group =>   3
Atom  14H    basis set group =>   4
Atom  15H    basis set group =>   4
Atom  16H    basis set group =>   4
Atom  17C    basis set group =>   3
Atom  18C    basis set group =>   3
Atom  19C    basis set group =>   3
Atom  20H    basis set group =>   4
Atom  21C    basis set group =>   3
Atom  22H    basis set group =>   4
Atom  23H    basis set group =>   4
Atom  24H    basis set group =>   4

-------------------------
BASIS SET IN INPUT FORMAT
-------------------------

 # Basis set for element : H 
 NewGTO H 
 S 8 
   1     188.6144500000      0.0009638500
   2      28.2765960000      0.0074919600
   3       6.4248300000      0.0375954101
   4       1.8150410000      0.1433949804
   5       0.5910630000      0.3486363010
   6       0.2121490000      0.4382973612
   7       0.0798910000      0.1651066105
   8       0.0279620000      0.0210228701
 S 8 
   1     188.6144500000     -0.0013119000
   2      28.2765960000     -0.0103451000
   3       6.4248300000     -0.0504952998
   4       1.8150410000     -0.2073854991
   5       0.5910630000     -0.4350884981
   6       0.2121490000     -0.0247296999
   7       0.0798910000      0.3225259886
   8       0.0279620000      0.7072753770
 S 8 
   1     188.6144500000      0.0024224000
   2      28.2765960000      0.0203381700
   3       6.4248300000      0.0896393498
   4       1.8150410000      0.4422907090
   5       0.5910630000      0.5757143887
   6       0.2121490000     -0.9802889977
   7       0.0798910000     -0.6721537984
   8       0.0279620000      1.1417684974
 P 4 
   1       2.3050000000      0.1127901896
   2       0.8067500000      0.4185075284
   3       0.2823620000      0.4700077282
   4       0.0988270000      0.1826260293
 P 4 
   1       2.3050000000     -0.2108687968
   2       0.8067500000     -0.5943795909
   3       0.2823620000      0.0896888786
   4       0.0988270000      0.8611633869
 D 3 
   1       1.8190000000      0.2705134090
   2       0.7276000000      0.5510124980
   3       0.2910400000      0.3310866388
  end;

 # Basis set for element : C 
 NewGTO C 
 S 14 
   1   50557.5010000000      0.0001128874
   2    7524.7856000000      0.0005295373
   3    1694.3276000000      0.0024500383
   4     472.8227900000      0.0100539847
   5     151.7107500000      0.0354539806
   6      53.9187460000      0.1044071086
   7      20.6593110000      0.2412894918
   8       8.3839760000      0.3834225483
   9       3.5770150000      0.3078514393
  10       1.5471180000      0.0687244299
  11       0.6130130000      0.0002224445
  12       0.2460680000      0.0019767489
  13       0.0990870000      0.0020578594
  14       0.0346800000      0.0004182020
 S 14 
   1   50557.5010000000     -0.0000250742
   2    7524.7856000000     -0.0001175945
   3    1694.3276000000     -0.0005456275
   4     472.8227900000     -0.0022450771
   5     151.7107500000     -0.0080434718
   6      53.9187460000     -0.0244258871
   7      20.6593110000     -0.0613679118
   8       8.3839760000     -0.1177767835
   9       3.5770150000     -0.1550487783
  10       1.5471180000     -0.0193331686
  11       0.6130130000      0.3996930678
  12       0.2460680000      0.5589420949
  13       0.0990870000      0.1711195023
  14       0.0346800000      0.0074562446
 S 14 
   1   50557.5010000000      0.0000161788
   2    7524.7856000000      0.0000749712
   3    1694.3276000000      0.0003573467
   4     472.8227900000      0.0014349316
   5     151.7107500000      0.0055086779
   6      53.9187460000      0.0169149690
   7      20.6593110000      0.0514166524
   8       8.3839760000      0.1137343741
   9       3.5770150000      0.2337183944
  10       1.5471180000     -0.0718378257
  11       0.6130130000     -1.0490908711
  12       0.2460680000     -0.0666273399
  13       0.0990870000      1.0119993798
  14       0.0346800000      0.1656046386
 P 9 
   1      83.3331550000      0.0013446560
   2      19.5576110000      0.0102355550
   3       6.0803650000      0.0452006710
   4       2.1793170000      0.1410756198
   5       0.8651500000      0.3047388085
   6       0.3619440000      0.3995281011
   7       0.1547400000      0.2719163432
   8       0.0654290000      0.0585766933
   9       0.0229000000     -0.0001263813
 P 9 
   1      83.3331550000     -0.0017715885
   2      19.5576110000     -0.0145621810
   3       6.0803650000     -0.0574573357
   4       2.1793170000     -0.2126582848
   5       0.8651500000     -0.5271712924
   6       0.3619440000     -0.0929697730
   7       0.1547400000      0.6630031669
   8       0.0654290000      0.3360877793
   9       0.0229000000      0.0054695244
 D 4 
   1       1.9000000000      0.1424518048
   2       0.6650000000      0.5591973019
   3       0.2327500000      0.4430004380
   4       0.0814630000      0.0410665370
  end;

 # Basis set for element : Cu
 NewGTO Cu
 S 21 
   1  9148883.0000000000      0.0001172200
   2  1369956.0000000000      0.0003315500
   3  311782.6000000000      0.0008824300
   4   88318.8000000000      0.0021722900
   5   28815.5300000000      0.0052954701
   6   10403.4600000000      0.0129663001
   7    4057.7910000000      0.0318805003
   8    1682.9740000000      0.0757656907
   9     733.7543000000      0.1624463715
  10     333.2677000000      0.2843595927
  11     156.4338000000      0.3417364333
  12      74.6972100000      0.2095508720
  13      33.3226200000      0.0354475103
  14      16.6223700000     -0.0024399600
  15       8.2082600000      0.0014699000
  16       3.6094000000     -0.0006437900
  17       1.6834490000      0.0002473800
  18       0.7337570000     -0.0000811800
  19       0.1102070000      0.0000161500
  20       0.0387860000     -0.0000123300
  21       0.0155140000      0.0000045200
 S 21 
   1  9148883.0000000000     -0.0000367500
   2  1369956.0000000000     -0.0001040300
   3  311782.6000000000     -0.0002773300
   4   88318.8000000000     -0.0006841700
   5   28815.5300000000     -0.0016768600
   6   10403.4600000000     -0.0041346000
   7    4057.7910000000     -0.0103512700
   8    1682.9740000000     -0.0253479100
   9     733.7543000000     -0.0583694699
  10     333.2677000000     -0.1167328398
  11     156.4338000000     -0.1846685996
  12      74.6972100000     -0.1470089897
  13      33.3226200000      0.1848325696
  14      16.6223700000      0.5677360889
  15       8.2082600000      0.3795609193
  16       3.6094000000      0.0470375499
  17       1.6834490000     -0.0007278300
  18       0.7337570000      0.0010297600
  19       0.1102070000     -0.0000702000
  20       0.0387860000      0.0000709000
  21       0.0155140000     -0.0000245400
 S 21 
   1  9148883.0000000000      0.0000138300
   2  1369956.0000000000      0.0000391400
   3  311782.6000000000      0.0001043900
   4   88318.8000000000      0.0002574500
   5   28815.5300000000      0.0006320300
   6   10403.4600000000      0.0015571800
   7    4057.7910000000      0.0039165900
   8    1682.9740000000      0.0095947599
   9     733.7543000000      0.0223883699
  10     333.2677000000      0.0452860597
  11     156.4338000000      0.0749837795
  12      74.6972100000      0.0618816996
  13      33.3226200000     -0.0904732694
  14      16.6223700000     -0.3928847174
  15       8.2082600000     -0.3566495576
  16       3.6094000000      0.3455479277
  17       1.6834490000      0.7063919653
  18       0.7337570000      0.2533591083
  19       0.1102070000      0.0065874900
  20       0.0387860000     -0.0004424700
  21       0.0155140000      0.0007233800
 S 21 
   1  9148883.0000000000     -0.0000027100
   2  1369956.0000000000     -0.0000076600
   3  311782.6000000000     -0.0000204700
   4   88318.8000000000     -0.0000503000
   5   28815.5300000000     -0.0001244200
   6   10403.4600000000     -0.0003026900
   7    4057.7910000000     -0.0007762800
   8    1682.9740000000     -0.0018524000
   9     733.7543000000     -0.0044827000
  10     333.2677000000     -0.0086602401
  11     156.4338000000     -0.0154472601
  12      74.6972100000     -0.0108986401
  13      33.3226200000      0.0146786701
  14      16.6223700000      0.0915412206
  15       8.2082600000      0.0633085704
  16       3.6094000000     -0.0609387904
  17       1.6834490000     -0.2714854517
  18       0.7337570000     -0.1013894406
  19       0.1102070000      0.7121218043
  20       0.0387860000      0.3461317521
  21       0.0155140000      0.0719870904
 S 21 
   1  9148883.0000000000      0.0000034600
   2  1369956.0000000000      0.0000097900
   3  311782.6000000000      0.0000262600
   4   88318.8000000000      0.0000639200
   5   28815.5300000000      0.0001608700
   6   10403.4600000000      0.0003802300
   7    4057.7910000000      0.0010171600
   8    1682.9740000000      0.0022915200
   9     733.7543000000      0.0059749700
  10     333.2677000000      0.0104469500
  11     156.4338000000      0.0215158300
  12      74.6972100000      0.0103012800
  13      33.3226200000     -0.0098432400
  14      16.6223700000     -0.1429262997
  15       8.2082600000     -0.0561270699
  16       3.6094000000      0.0913564998
  17       1.6834490000      0.4583140189
  18       0.7337570000     -0.1972673995
  19       0.1102070000     -1.3031015670
  20       0.0387860000      0.8797556780
  21       0.0155140000      0.5731088887
 S 21 
   1  9148883.0000000000     -0.0000140100
   2  1369956.0000000000     -0.0000395900
   3  311782.6000000000     -0.0001061200
   4   88318.8000000000     -0.0002590000
   5   28815.5300000000     -0.0006486500
   6   10403.4600000000     -0.0015477000
   7    4057.7910000000     -0.0040834200
   8    1682.9740000000     -0.0094020600
   9     733.7543000000     -0.0238911700
  10     333.2677000000     -0.0435983200
  11     156.4338000000     -0.0858885701
  12      74.6972100000     -0.0473486501
  13      33.3226200000      0.0638259201
  14      16.6223700000      0.5936354107
  15       8.2082600000      0.4150606205
  16       3.6094000000     -1.7002794219
  17       1.6834490000     -0.2979995603
  18       0.7337570000      1.7071942519
  19       0.1102070000     -0.6560005307
  20       0.0387860000     -0.3192452404
  21       0.0155140000      0.6177245607
 P 15 
   1    9713.2530000000      0.0003998700
   2    2300.8890000000      0.0021015700
   3     746.7706000000      0.0100109700
   4     284.6806000000      0.0383603898
   5     119.9999000000      0.1162675595
   6      54.0738600000      0.2589983089
   7      25.3732100000      0.3842822584
   8      12.2096200000      0.2991120987
   9       5.7574210000      0.0800067197
  10       2.6734020000      0.0031944000
  11       1.1868350000      0.0014725200
  12       0.4815930000     -0.0002339100
  13       0.1926370000      0.0002076100
  14       0.0770550000     -0.0000896300
  15       0.0308220000      0.0000278300
 P 15 
   1    9713.2530000000     -0.0001487900
   2    2300.8890000000     -0.0007826200
   3     746.7706000000     -0.0037622900
   4     284.6806000000     -0.0145796799
   5     119.9999000000     -0.0457109297
   6      54.0738600000     -0.1059301293
   7      25.3732100000     -0.1683622789
   8      12.2096200000     -0.1037321293
   9       5.7574210000      0.2108315487
  10       2.6734020000      0.4891644269
  11       1.1868350000      0.3846863776
  12       0.4815930000      0.0852933795
  13       0.1926370000     -0.0016104500
  14       0.0770550000      0.0020653000
  15       0.0308220000     -0.0006417500
 P 15 
   1    9713.2530000000      0.0000505300
   2    2300.8890000000      0.0002671900
   3     746.7706000000      0.0012771800
   4     284.6806000000      0.0049976000
   5     119.9999000000      0.0156137599
   6      54.0738600000      0.0368970098
   7      25.3732100000      0.0579646897
   8      12.2096200000      0.0379196598
   9       5.7574210000     -0.1170649894
  10       2.6734020000     -0.2091225689
  11       1.1868350000     -0.0580053197
  12       0.4815930000      0.1643073591
  13       0.1926370000      0.5288546572
  14       0.0770550000      0.3737301580
  15       0.0308220000      0.0839986596
 P 15 
   1    9713.2530000000     -0.0001587800
   2    2300.8890000000     -0.0008535900
   3     746.7706000000     -0.0039991900
   4     284.6806000000     -0.0160809199
   5     119.9999000000     -0.0492486397
   6      54.0738600000     -0.1216567894
   7      25.3732100000     -0.1771336691
   8      12.2096200000     -0.1444819692
   9       5.7574210000      0.6474331066
  10       2.6734020000      0.5479769171
  11       1.1868350000     -0.7818032059
  12       0.4815930000     -0.5260777772
  13       0.1926370000      0.2243717688
  14       0.0770550000      0.3339245282
  15       0.0308220000      0.1444637392
 P 15 
   1    9713.2530000000      0.0001267900
   2    2300.8890000000      0.0006839700
   3     746.7706000000      0.0032029100
   4     284.6806000000      0.0130135100
   5     119.9999000000      0.0402137099
   6      54.0738600000      0.1015010898
   7      25.3732100000      0.1370095397
   8      12.2096200000      0.1062897198
   9       5.7574210000     -0.8339026482
  10       2.6734020000      0.1441200197
  11       1.1868350000      0.9830123878
  12       0.4815930000     -0.5295641788
  13       0.1926370000     -0.7530398383
  14       0.0770550000      0.4428869990
  15       0.0308220000      0.5751158887
 D 10 
   1     249.3497000000      0.0013456100
   2      74.6383700000      0.0108098300
   3      28.3764100000      0.0473379301
   4      11.9489300000      0.1377258202
   5       5.3176460000      0.2626383304
   6       2.3644170000      0.3347040105
   7       1.0123860000      0.3100059705
   8       0.4067730000      0.2131681903
   9       0.1473310000      0.0786536501
  10       0.0589320000      0.0060309600
 D 10 
   1     249.3497000000     -0.0015835900
   2      74.6383700000     -0.0128111601
   3      28.3764100000     -0.0564267902
   4      11.9489300000     -0.1664139307
   5       5.3176460000     -0.3510601415
   6       2.3644170000     -0.2371789010
   7       1.0123860000      0.2199464110
   8       0.4067730000      0.4884136321
   9       0.1473310000      0.2953713113
  10       0.0589320000      0.0429553902
 D 10 
   1     249.3497000000      0.0019111600
   2      74.6383700000      0.0177249500
   3      28.3764100000      0.0705638099
   4      11.9489300000      0.2290610097
   5       5.3176460000      0.4393851094
   6       2.3644170000     -0.2673990797
   7       1.0123860000     -0.6259062392
   8       0.4067730000      0.1221133998
   9       0.1473310000      0.5368362893
  10       0.0589320000      0.1975005497
 F 6 
   1      15.4333000000      0.0368206299
   2       6.1172000000      0.2459141793
   3       2.4246000000      0.5011268786
   4       0.9610000000      0.3585064790
   5       0.3809000000      0.1472806196
   6       0.1510000000      0.0256474799
 F 6 
   1      15.4333000000     -0.0620033603
   2       6.1172000000     -0.5287666929
   3       2.4246000000     -0.2907838616
   4       0.9610000000      0.5212415728
   5       0.3809000000      0.3753220521
   6       0.1510000000      0.1065979806
 G 4 
   1       8.7286000000      0.1690384791
   2       3.4308000000      0.6065418469
   3       1.3485000000      0.3797989880
   4       0.5300000000      0.1036775695
  end;

 # Basis set for element : Se
 NewGTO Se
 S 20 
   1  15378932.5999999996      0.0001334000
   2  1954263.9700000000      0.0004439400
   3  379640.6000000000      0.0013127500
   4   93606.4895000000      0.0035598200
   5   27183.3190000000      0.0094252900
   6    8900.6248300000      0.0249605899
   7    3196.4747300000      0.0652118297
   8    1233.7752100000      0.1568651194
   9     503.4591590000      0.3055559788
  10     214.5987720000      0.3814771885
  11      94.0903310000      0.1984466692
  12      40.3524084000      0.0167580599
  13      18.4102151000      0.0015085900
  14       8.3955108500     -0.0010891700
  15       3.7475099500      0.0006664500
  16       1.6293192600     -0.0003856700
  17       0.6415915500      0.0002320200
  18       0.2789203800     -0.0001327100
  19       0.1120174900      0.0000529900
  20       0.0448069900     -0.0000092000
 S 20 
   1  15378932.5999999996     -0.0000428500
   2  1954263.9700000000     -0.0001427500
   3  379640.6000000000     -0.0004229000
   4   93606.4895000000     -0.0011512100
   5   27183.3190000000     -0.0030687700
   6    8900.6248300000     -0.0082421599
   7    3196.4747300000     -0.0221427099
   8    1233.7752100000     -0.0567430396
   9     503.4591590000     -0.1268132992
  10     214.5987720000     -0.2113817486
  11      94.0903310000     -0.1375811391
  12      40.3524084000      0.3473067377
  13      18.4102151000      0.6374904458
  14       8.3955108500      0.1961151687
  15       3.7475099500      0.0071494700
  16       1.6293192600      0.0020721900
  17       0.6415915500     -0.0001816900
  18       0.2789203800      0.0006804000
  19       0.1120174900      0.0002818800
  20       0.0448069900      0.0000485300
 S 20 
   1  15378932.5999999996      0.0000168900
   2  1954263.9700000000      0.0000562700
   3  379640.6000000000      0.0001667600
   4   93606.4895000000      0.0004541400
   5   27183.3190000000      0.0012118000
   6    8900.6248300000      0.0032600300
   7    3196.4747300000      0.0087915900
   8    1233.7752100000      0.0227118500
   9     503.4591590000      0.0517227800
  10     214.5987720000      0.0897834199
  11      94.0903310000      0.0626941499
  12      40.3524084000     -0.1984690398
  13      18.4102151000     -0.5365347995
  14       8.3955108500     -0.1060836599
  15       3.7475099500      0.7395202493
  16       1.6293192600      0.5061155595
  17       0.6415915500      0.0157278100
  18       0.2789203800      0.0211140900
  19       0.1120174900      0.0031657100
  20       0.0448069900      0.0012003800
 S 20 
   1  15378932.5999999996     -0.0000052400
   2  1954263.9700000000     -0.0000174600
   3  379640.6000000000     -0.0000517600
   4   93606.4895000000     -0.0001409500
   5   27183.3190000000     -0.0003762100
   6    8900.6248300000     -0.0010121000
   7    3196.4747300000     -0.0027317500
   8    1233.7752100000     -0.0070620600
   9     503.4591590000     -0.0161369400
  10     214.5987720000     -0.0281528999
  11      94.0903310000     -0.0199427700
  12      40.3524084000      0.0653079398
  13      18.4102151000      0.1866783796
  14       8.3955108500      0.0354627099
  15       3.7475099500     -0.3411660192
  16       1.6293192600     -0.4414863990
  17       0.6415915500      0.2202745295
  18       0.2789203800      0.7306425483
  19       0.1120174900      0.3077878193
  20       0.0448069900      0.0085374900
 S 20 
   1  15378932.5999999996      0.0000048600
   2  1954263.9700000000      0.0000163700
   3  379640.6000000000      0.0000473100
   4   93606.4895000000      0.0001365200
   5   27183.3190000000      0.0003259200
   6    8900.6248300000      0.0010644800
   7    3196.4747300000      0.0021147500
   8    1233.7752100000      0.0092318800
   9     503.4591590000      0.0090091100
  10     214.5987720000      0.0332185699
  11      94.0903310000      0.0092277400
  12      40.3524084000     -0.0425099299
  13      18.4102151000     -0.2122362594
  14       8.3955108500      0.0213637199
  15       3.7475099500      0.2715316493
  16       1.6293192600      0.7115373980
  17       0.6415915500     -1.0981705070
  18       0.2789203800     -0.8688003776
  19       0.1120174900      1.2464513766
  20       0.0448069900      0.2852642892
 S 20 
   1  15378932.5999999996     -0.0000066500
   2  1954263.9700000000     -0.0000205700
   3  379640.6000000000     -0.0000724200
   4   93606.4895000000     -0.0001245600
   5   27183.3190000000     -0.0006992800
   6    8900.6248300000     -0.0001043100
   7    3196.4747300000     -0.0075491900
   8    1233.7752100000      0.0164844900
   9     503.4591590000     -0.0800215798
  10     214.5987720000      0.0209696300
  11      94.0903310000     -0.1059056798
  12      40.3524084000      0.2543532495
  13      18.4102151000      0.0653380099
  14       8.3955108500      0.2234480795
  15       3.7475099500     -0.8515261082
  16       1.6293192600     -0.7549058184
  17       0.6415915500      3.6906889623
  18       0.2789203800     -3.4326587828
  19       0.1120174900      0.3954868192
  20       0.0448069900      0.8696904382
 P 17 
   1  143787.9870000000      0.0000438700
   2   22177.9579000000      0.0002341200
   3    5417.0521100000      0.0011395000
   4    1717.3427700000      0.0051036000
   5     640.1680710000      0.0200978199
   6     265.4421210000      0.0662424097
   7     118.6091690000      0.1715184091
   8      55.7211799000      0.3204143384
   9      27.1086699000      0.3714738081
  10      13.4156096000      0.2006667190
  11       6.4447310200      0.0338313098
  12       3.0526007200      0.0013699800
  13       1.4224606200      0.0005176500
  14       0.5309172200     -0.0000770200
  15       0.2095028200      0.0000023400
  16       0.0785990400     -0.0000157000
  17       0.0314396100      0.0000037300
 P 17 
   1  143787.9870000000     -0.0000174600
   2   22177.9579000000     -0.0000932300
   3    5417.0521100000     -0.0004552900
   4    1717.3427700000     -0.0020455300
   5     640.1680710000     -0.0081504200
   6     265.4421210000     -0.0273946700
   7     118.6091690000     -0.0738833800
   8      55.7211799000     -0.1450003899
   9      27.1086699000     -0.1760046399
  10      13.4156096000      0.0019223800
  11       6.4447310200      0.3630425798
  12       3.0526007200      0.5026005497
  13       1.4224606200      0.2356755199
  14       0.5309172200      0.0184743800
  15       0.2095028200     -0.0025018700
  16       0.0785990400      0.0002164700
  17       0.0314396100     -0.0002403400
 P 17 
   1  143787.9870000000      0.0000041600
   2   22177.9579000000      0.0000221700
   3    5417.0521100000      0.0001087700
   4    1717.3427700000      0.0004859100
   5     640.1680710000      0.0019528300
   6     265.4421210000      0.0065271000
   7     118.6091690000      0.0178583000
   8      55.7211799000      0.0348438599
   9      27.1086699000      0.0435580899
  10      13.4156096000     -0.0066371700
  11       6.4447310200     -0.1040411897
  12       3.0526007200     -0.1705446796
  13       1.4224606200     -0.0527924199
  14       0.5309172200      0.3540454591
  15       0.2095028200      0.5455976386
  16       0.0785990400      0.2464488194
  17       0.0314396100      0.0287307699
 P 17 
   1  143787.9870000000     -0.0000037900
   2   22177.9579000000     -0.0000202500
   3    5417.0521100000     -0.0000986800
   4    1717.3427700000     -0.0004449500
   5     640.1680710000     -0.0017690200
   6     265.4421210000     -0.0059850800
   7     118.6091690000     -0.0161604799
   8      55.7211799000     -0.0321314099
   9      27.1086699000     -0.0388343298
  10      13.4156096000      0.0040976900
  11       6.4447310200      0.1027056796
  12       3.0526007200      0.1479946594
  13       1.4224606200      0.0916032396
  14       0.5309172200     -0.6457900772
  15       0.2095028200     -0.3047938487
  16       0.0785990400      0.7443693368
  17       0.0314396100      0.3803063283
 P 17 
   1  143787.9870000000      0.0000055500
   2   22177.9579000000      0.0000283700
   3    5417.0521100000      0.0001505200
   4    1717.3427700000      0.0006038200
   5     640.1680710000      0.0027476900
   6     265.4421210000      0.0079958300
   7     118.6091690000      0.0256812100
   8      55.7211799000      0.0403250499
   9      27.1086699000      0.0726836099
  10      13.4156096000     -0.0400497499
  11       6.4447310200     -0.0927272698
  12       3.0526007200     -0.3547002293
  13       1.4224606200      0.0659205399
  14       0.5309172200      1.3956049174
  15       0.2095028200     -1.3892391674
  16       0.0785990400     -0.1866128496
  17       0.0314396100      0.8636213584
 D 11 
   1     503.4591590000      0.0007198700
   2     214.5987720000      0.0025122300
   3      94.0903310000      0.0149394599
   4      40.3524084000      0.0561371297
   5      18.4102151000      0.1559031991
   6       8.3955108500      0.3069174683
   7       3.7475099500      0.3831917879
   8       1.6293192600      0.2927991284
   9       0.6415915500      0.0905204295
  10       0.2566366200      0.0004461100
  11       0.1026546500      0.0017686600
 D 11 
   1     503.4591590000     -0.0002002600
   2     214.5987720000     -0.0007583600
   3      94.0903310000     -0.0042026700
   4      40.3524084000     -0.0165291900
   5      18.4102151000     -0.0444959800
   6       8.3955108500     -0.0937891599
   7       3.7475099500     -0.1088980599
   8       1.6293192600     -0.1007123699
   9       0.6415915500      0.3874256496
  10       0.2566366200      0.6095026894
  11       0.1026546500      0.1618579698
 D 11 
   1     503.4591590000      0.0002561400
   2     214.5987720000      0.0006656200
   3      94.0903310000      0.0051283000
   4      40.3524084000      0.0160056700
   5      18.4102151000      0.0522849901
   6       8.3955108500      0.0982963002
   7       3.7475099500      0.1545055703
   8       1.6293192600      0.1267978402
   9       0.6415915500     -1.0554217820
  10       0.2566366200      0.3582744907
  11       0.1026546500      0.6766095113
 F 4 
   1       1.1928400000      0.1040642200
   2       0.4771360000      0.6746102203
   3       0.1908540000      0.3393981302
   4       0.0763416000      0.0365920800
 F 4 
   1       1.1928400000     -0.3745380412
   2       0.4771360000     -0.6466946021
   3       0.1908540000      1.0068953133
   4       0.0763416000      0.0804573103
 G 2 
   1       0.5964200000      0.7614694129
   2       0.2385670000      0.3452849513
  end;

---------------------------------
AUXILIARY/J BASIS SET INFORMATION
---------------------------------
There are 5 groups of distinct atoms

 Group   1 Type Cu  : 23s20p18d17f13g5h contracted to 23s20p18d17f13g5h pattern {11111111111111111111111/11111111111111111111/111111111111111111/11111111111111111/1111111111111/11111}
 Group   2 Type Se  : 22s20p18d18f14g6h contracted to 22s20p18d18f14g6h pattern {1111111111111111111111/11111111111111111111/111111111111111111/111111111111111111/11111111111111/111111}
 Group   3 Type C   : 17s14p13d4f contracted to 17s14p13d4f pattern {11111111111111111/11111111111111/1111111111111/1111}
 Group   4 Type C   : 16s14p13d4f contracted to 16s14p13d4f pattern {1111111111111111/11111111111111/1111111111111/1111}
 Group   5 Type H   : 12s5p4d3f contracted to 12s5p4d3f pattern {111111111111/11111/1111/111}

Atom   0Cu   basis set group =>   1
Atom   1Se   basis set group =>   2
Atom   2C    basis set group =>   3
Atom   3Se   basis set group =>   2
Atom   4C    basis set group =>   4
Atom   5Se   basis set group =>   2
Atom   6C    basis set group =>   3
Atom   7Se   basis set group =>   2
Atom   8C    basis set group =>   3
Atom   9C    basis set group =>   3
Atom  10C    basis set group =>   3
Atom  11C    basis set group =>   3
Atom  12H    basis set group =>   5
Atom  13C    basis set group =>   3
Atom  14H    basis set group =>   5
Atom  15H    basis set group =>   5
Atom  16H    basis set group =>   5
Atom  17C    basis set group =>   3
Atom  18C    basis set group =>   3
Atom  19C    basis set group =>   3
Atom  20H    basis set group =>   5
Atom  21C    basis set group =>   3
Atom  22H    basis set group =>   5
Atom  23H    basis set group =>   5
Atom  24H    basis set group =>   5

-------------------------------------
AUXILIARY/J BASIS SET IN INPUT FORMAT
-------------------------------------

 # Auxiliary/J basis set for element : H 
 NewAuxJGTO H 
 S 1 
   1      35.9414656527      1.0000000000
 S 1 
   1      19.9674809182      1.0000000000
 S 1 
   1      11.0930449545      1.0000000000
 S 1 
   1       6.1628027525      1.0000000000
 S 1 
   1       3.4237793070      1.0000000000
 S 1 
   1       1.9020996150      1.0000000000
 S 1 
   1       1.0567220083      1.0000000000
 S 1 
   1       0.5870677824      1.0000000000
 S 1 
   1       0.3261487680      1.0000000000
 S 1 
   1       0.1811937600      1.0000000000
 S 1 
   1       0.1006632000      1.0000000000
 S 1 
   1       0.0559240000      1.0000000000
 P 1 
   1       2.0286240000      1.0000000000
 P 1 
   1       1.0143120000      1.0000000000
 P 1 
   1       0.5071560000      1.0000000000
 P 1 
   1       0.2535780000      1.0000000000
 P 1 
   1       0.1267890000      1.0000000000
 D 1 
   1       2.1046197920      1.0000000000
 D 1 
   1       0.9566453600      1.0000000000
 D 1 
   1       0.4348388000      1.0000000000
 D 1 
   1       0.1976540000      1.0000000000
 F 1 
   1       1.8869562800      1.0000000000
 F 1 
   1       0.8577074000      1.0000000000
 F 1 
   1       0.3898670000      1.0000000000
  end;

 # Auxiliary/J basis set for element : Cu
 NewAuxJGTO Cu
 S 1 
   1   12815.8936556437      1.0000000000
 S 1 
   1    7119.9409198021      1.0000000000
 S 1 
   1    3955.5227332234      1.0000000000
 S 1 
   1    2197.5126295685      1.0000000000
 S 1 
   1    1220.8403497603      1.0000000000
 S 1 
   1     678.2446387557      1.0000000000
 S 1 
   1     376.8025770865      1.0000000000
 S 1 
   1     209.3347650481      1.0000000000
 S 1 
   1     116.2970916934      1.0000000000
 S 1 
   1      64.6094953852      1.0000000000
 S 1 
   1      35.8941641029      1.0000000000
 S 1 
   1      19.9412022794      1.0000000000
 S 1 
   1      11.0784457108      1.0000000000
 S 1 
   1       6.1546920615      1.0000000000
 S 1 
   1       3.4192733675      1.0000000000
 S 1 
   1       1.8995963153      1.0000000000
 S 1 
   1       1.0553312863      1.0000000000
 S 1 
   1       0.5862951590      1.0000000000
 S 1 
   1       0.3257195328      1.0000000000
 S 1 
   1       0.1809552960      1.0000000000
 S 1 
   1       0.1005307200      1.0000000000
 S 1 
   1       0.0558504000      1.0000000000
 S 1 
   1       0.0310280000      1.0000000000
 P 1 
   1    3281.6792962385      1.0000000000
 P 1 
   1    1823.1551645769      1.0000000000
 P 1 
   1    1012.8639803205      1.0000000000
 P 1 
   1     562.7022112892      1.0000000000
 P 1 
   1     312.6123396051      1.0000000000
 P 1 
   1     173.6735220028      1.0000000000
 P 1 
   1      96.4852900016      1.0000000000
 P 1 
   1      53.6029388898      1.0000000000
 P 1 
   1      29.7794104943      1.0000000000
 P 1 
   1      16.5441169413      1.0000000000
 P 1 
   1       9.1911760785      1.0000000000
 P 1 
   1       5.1062089325      1.0000000000
 P 1 
   1       2.8367827403      1.0000000000
 P 1 
   1       1.5759904113      1.0000000000
 P 1 
   1       0.8755502285      1.0000000000
 P 1 
   1       0.4864167936      1.0000000000
 P 1 
   1       0.2702315520      1.0000000000
 P 1 
   1       0.1501286400      1.0000000000
 P 1 
   1       0.0834048000      1.0000000000
 P 1 
   1       0.0463360000      1.0000000000
 D 1 
   1    1347.4833218853      1.0000000000
 D 1 
   1     748.6018454918      1.0000000000
 D 1 
   1     415.8899141621      1.0000000000
 D 1 
   1     231.0499523123      1.0000000000
 D 1 
   1     128.3610846179      1.0000000000
 D 1 
   1      71.3117136766      1.0000000000
 D 1 
   1      39.6176187092      1.0000000000
 D 1 
   1      22.0097881718      1.0000000000
 D 1 
   1      12.2276600954      1.0000000000
 D 1 
   1       6.7931444975      1.0000000000
 D 1 
   1       3.7739691653      1.0000000000
 D 1 
   1       2.0966495363      1.0000000000
 D 1 
   1       1.1648052979      1.0000000000
 D 1 
   1       0.6471140544      1.0000000000
 D 1 
   1       0.3595078080      1.0000000000
 D 1 
   1       0.1997265600      1.0000000000
 D 1 
   1       0.1109592000      1.0000000000
 D 1 
   1       0.0616440000      1.0000000000
 F 1 
   1    1089.9683674044      1.0000000000
 F 1 
   1     605.5379818913      1.0000000000
 F 1 
   1     336.4099899396      1.0000000000
 F 1 
   1     186.8944388553      1.0000000000
 F 1 
   1     103.8302438085      1.0000000000
 F 1 
   1      57.6834687825      1.0000000000
 F 1 
   1      32.0463715458      1.0000000000
 F 1 
   1      17.8035397477      1.0000000000
 F 1 
   1       9.8908554154      1.0000000000
 F 1 
   1       5.4949196752      1.0000000000
 F 1 
   1       3.0527331529      1.0000000000
 F 1 
   1       1.6959628627      1.0000000000
 F 1 
   1       0.9422015904      1.0000000000
 F 1 
   1       0.5234453280      1.0000000000
 F 1 
   1       0.2908029600      1.0000000000
 F 1 
   1       0.1615572000      1.0000000000
 F 1 
   1       0.0897540000      1.0000000000
 G 1 
   1     136.3487739404      1.0000000000
 G 1 
   1      75.7493188558      1.0000000000
 G 1 
   1      42.0829549199      1.0000000000
 G 1 
   1      23.3794193999      1.0000000000
 G 1 
   1      12.9885663333      1.0000000000
 G 1 
   1       7.2158701852      1.0000000000
 G 1 
   1       4.0088167695      1.0000000000
 G 1 
   1       2.2271204275      1.0000000000
 G 1 
   1       1.2372891264      1.0000000000
 G 1 
   1       0.6873828480      1.0000000000
 G 1 
   1       0.3818793600      1.0000000000
 G 1 
   1       0.2121552000      1.0000000000
 G 1 
   1       0.1178640000      1.0000000000
 H 1 
   1       5.8747580812      1.0000000000
 H 1 
   1       2.5542426440      1.0000000000
 H 1 
   1       1.1105402800      1.0000000000
 H 1 
   1       0.4828436000      1.0000000000
 H 1 
   1       0.2099320000      1.0000000000
  end;

 # Auxiliary/J basis set for element : Se
 NewAuxJGTO Se
 S 1 
   1   14428.7846939293      1.0000000000
 S 1 
   1    8015.9914966274      1.0000000000
 S 1 
   1    4453.3286092374      1.0000000000
 S 1 
   1    2474.0714495763      1.0000000000
 S 1 
   1    1374.4841386535      1.0000000000
 S 1 
   1     763.6022992520      1.0000000000
 S 1 
   1     424.2234995844      1.0000000000
 S 1 
   1     235.6797219913      1.0000000000
 S 1 
   1     130.9331788841      1.0000000000
 S 1 
   1      72.7406549356      1.0000000000
 S 1 
   1      40.4114749642      1.0000000000
 S 1 
   1      22.4508194246      1.0000000000
 S 1 
   1      12.4726774581      1.0000000000
 S 1 
   1       6.9292652545      1.0000000000
 S 1 
   1       3.8495918081      1.0000000000
 S 1 
   1       2.1386621156      1.0000000000
 S 1 
   1       1.1881456198      1.0000000000
 S 1 
   1       0.6600808999      1.0000000000
 S 1 
   1       0.3667116110      1.0000000000
 S 1 
   1       0.2037286728      1.0000000000
 S 1 
   1       0.1131825960      1.0000000000
 S 1 
   1       0.0628792200      1.0000000000
 P 1 
   1    4453.3286092374      1.0000000000
 P 1 
   1    2474.0714495763      1.0000000000
 P 1 
   1    1374.4841386535      1.0000000000
 P 1 
   1     763.6022992520      1.0000000000
 P 1 
   1     424.2234995844      1.0000000000
 P 1 
   1     235.6797219913      1.0000000000
 P 1 
   1     130.9331788841      1.0000000000
 P 1 
   1      72.7406549356      1.0000000000
 P 1 
   1      40.4114749642      1.0000000000
 P 1 
   1      22.4508194246      1.0000000000
 P 1 
   1      12.4726774581      1.0000000000
 P 1 
   1       6.9292652545      1.0000000000
 P 1 
   1       3.8495918081      1.0000000000
 P 1 
   1       2.1386621156      1.0000000000
 P 1 
   1       1.1881456198      1.0000000000
 P 1 
   1       0.6600808999      1.0000000000
 P 1 
   1       0.3667116110      1.0000000000
 P 1 
   1       0.2037286728      1.0000000000
 P 1 
   1       0.1131825960      1.0000000000
 P 1 
   1       0.0628792200      1.0000000000
 D 1 
   1    1374.4841386535      1.0000000000
 D 1 
   1     763.6022992520      1.0000000000
 D 1 
   1     424.2234995844      1.0000000000
 D 1 
   1     235.6797219913      1.0000000000
 D 1 
   1     130.9331788841      1.0000000000
 D 1 
   1      72.7406549356      1.0000000000
 D 1 
   1      40.4114749642      1.0000000000
 D 1 
   1      22.4508194246      1.0000000000
 D 1 
   1      12.4726774581      1.0000000000
 D 1 
   1       6.9292652545      1.0000000000
 D 1 
   1       3.8495918081      1.0000000000
 D 1 
   1       2.1386621156      1.0000000000
 D 1 
   1       1.1881456198      1.0000000000
 D 1 
   1       0.6600808999      1.0000000000
 D 1 
   1       0.3667116110      1.0000000000
 D 1 
   1       0.2037286728      1.0000000000
 D 1 
   1       0.1131825960      1.0000000000
 D 1 
   1       0.0628792200      1.0000000000
 F 1 
   1    2356.0019286162      1.0000000000
 F 1 
   1    1308.8899603424      1.0000000000
 F 1 
   1     727.1610890791      1.0000000000
 F 1 
   1     403.9783828217      1.0000000000
 F 1 
   1     224.4324349010      1.0000000000
 F 1 
   1     124.6846860561      1.0000000000
 F 1 
   1      69.2692700312      1.0000000000
 F 1 
   1      38.4829277951      1.0000000000
 F 1 
   1      21.3794043306      1.0000000000
 F 1 
   1      11.8774468503      1.0000000000
 F 1 
   1       6.5985815835      1.0000000000
 F 1 
   1       3.6658786575      1.0000000000
 F 1 
   1       2.0365992542      1.0000000000
 F 1 
   1       1.1314440301      1.0000000000
 F 1 
   1       0.6285800167      1.0000000000
 F 1 
   1       0.3492111204      1.0000000000
 F 1 
   1       0.1940061780      1.0000000000
 F 1 
   1       0.1077812100      1.0000000000
 G 1 
   1     224.4324349010      1.0000000000
 G 1 
   1     124.6846860561      1.0000000000
 G 1 
   1      69.2692700312      1.0000000000
 G 1 
   1      38.4829277951      1.0000000000
 G 1 
   1      21.3794043306      1.0000000000
 G 1 
   1      11.8774468503      1.0000000000
 G 1 
   1       6.5985815835      1.0000000000
 G 1 
   1       3.6658786575      1.0000000000
 G 1 
   1       2.0365992542      1.0000000000
 G 1 
   1       1.1314440301      1.0000000000
 G 1 
   1       0.6285800167      1.0000000000
 G 1 
   1       0.3492111204      1.0000000000
 G 1 
   1       0.1940061780      1.0000000000
 G 1 
   1       0.1077812100      1.0000000000
 H 1 
   1       9.8272144554      1.0000000000
 H 1 
   1       4.2727019371      1.0000000000
 H 1 
   1       1.8576964944      1.0000000000
 H 1 
   1       0.8076941280      1.0000000000
 H 1 
   1       0.3511713600      1.0000000000
 H 1 
   1       0.1526832000      1.0000000000
  end;

 There are some elements with more than one basis set type. The most frequent
 definition will be printed and can be used in [BASIS]. The less frequent definitions
 must be pasted into the [COORDS] section after specification of the given atom
 # Auxiliary/J basis set for element : C 
 NewAuxJGTO C 
 S 1 
    1    556.1930524224      1.0000000000
 S 1 
    1    308.9961402347      1.0000000000
 S 1 
    1    171.6645223526      1.0000000000
 S 1 
    1     95.3691790848      1.0000000000
 S 1 
    1     52.9828772693      1.0000000000
 S 1 
    1     29.4349318163      1.0000000000
 S 1 
    1     16.3527398979      1.0000000000
 S 1 
    1      9.0848554989      1.0000000000
 S 1 
    1      5.0471419438      1.0000000000
 S 1 
    1      2.8039677466      1.0000000000
 S 1 
    1      1.5577598592      1.0000000000
 S 1 
    1      0.8654221440      1.0000000000
 S 1 
    1      0.4807900800      1.0000000000
 S 1 
    1      0.2671056000      1.0000000000
 S 1 
    1      0.1483920000      1.0000000000
 S 1 
    1      0.0824400000      1.0000000000
 S 1 
    1      0.0458000000      1.0000000000
 P 1 
    1     95.3691790848      1.0000000000
 P 1 
    1     52.9828772693      1.0000000000
 P 1 
    1     29.4349318163      1.0000000000
 P 1 
    1     16.3527398979      1.0000000000
 P 1 
    1      9.0848554989      1.0000000000
 P 1 
    1      5.0471419438      1.0000000000
 P 1 
    1      2.8039677466      1.0000000000
 P 1 
    1      1.5577598592      1.0000000000
 P 1 
    1      0.8654221440      1.0000000000
 P 1 
    1      0.4807900800      1.0000000000
 P 1 
    1      0.2671056000      1.0000000000
 P 1 
    1      0.1483920000      1.0000000000
 P 1 
    1      0.0824400000      1.0000000000
 P 1 
    1      0.0458000000      1.0000000000
 D 1 
    1     52.9828772693      1.0000000000
 D 1 
    1     29.4349318163      1.0000000000
 D 1 
    1     16.3527398979      1.0000000000
 D 1 
    1      9.0848554989      1.0000000000
 D 1 
    1      5.0471419438      1.0000000000
 D 1 
    1      2.8039677466      1.0000000000
 D 1 
    1      1.5577598592      1.0000000000
 D 1 
    1      0.8654221440      1.0000000000
 D 1 
    1      0.4807900800      1.0000000000
 D 1 
    1      0.2671056000      1.0000000000
 D 1 
    1      0.1483920000      1.0000000000
 D 1 
    1      0.0824400000      1.0000000000
 D 1 
    1      0.0458000000      1.0000000000
 F 1 
    1      1.1112572240      1.0000000000
 F 1 
    1      0.5051169200      1.0000000000
 F 1 
    1      0.2295986000      1.0000000000
 F 1 
    1      0.1043630000      1.0000000000
  end;

  # Auxiliary/J basis set for element : C 
  # Members: C 4 
  NewAuxJGTO
 S 1 
   1     556.1930524224      1.0000000000
 S 1 
   1     308.9961402347      1.0000000000
 S 1 
   1     171.6645223526      1.0000000000
 S 1 
   1      95.3691790848      1.0000000000
 S 1 
   1      52.9828772693      1.0000000000
 S 1 
   1      29.4349318163      1.0000000000
 S 1 
   1      16.3527398979      1.0000000000
 S 1 
   1       9.0848554989      1.0000000000
 S 1 
   1       5.0471419438      1.0000000000
 S 1 
   1       2.8039677466      1.0000000000
 S 1 
   1       1.5577598592      1.0000000000
 S 1 
   1       0.8654221440      1.0000000000
 S 1 
   1       0.4807900800      1.0000000000
 S 1 
   1       0.2671056000      1.0000000000
 S 1 
   1       0.1483920000      1.0000000000
 S 1 
   1       0.0458000000      1.0000000000
 P 1 
   1      95.3691790848      1.0000000000
 P 1 
   1      52.9828772693      1.0000000000
 P 1 
   1      29.4349318163      1.0000000000
 P 1 
   1      16.3527398979      1.0000000000
 P 1 
   1       9.0848554989      1.0000000000
 P 1 
   1       5.0471419438      1.0000000000
 P 1 
   1       2.8039677466      1.0000000000
 P 1 
   1       1.5577598592      1.0000000000
 P 1 
   1       0.8654221440      1.0000000000
 P 1 
   1       0.4807900800      1.0000000000
 P 1 
   1       0.2671056000      1.0000000000
 P 1 
   1       0.1483920000      1.0000000000
 P 1 
   1       0.0824400000      1.0000000000
 P 1 
   1       0.0458000000      1.0000000000
 D 1 
   1      52.9828772693      1.0000000000
 D 1 
   1      29.4349318163      1.0000000000
 D 1 
   1      16.3527398979      1.0000000000
 D 1 
   1       9.0848554989      1.0000000000
 D 1 
   1       5.0471419438      1.0000000000
 D 1 
   1       2.8039677466      1.0000000000
 D 1 
   1       1.5577598592      1.0000000000
 D 1 
   1       0.8654221440      1.0000000000
 D 1 
   1       0.4807900800      1.0000000000
 D 1 
   1       0.2671056000      1.0000000000
 D 1 
   1       0.1483920000      1.0000000000
 D 1 
   1       0.0824400000      1.0000000000
 D 1 
   1       0.0458000000      1.0000000000
 F 1 
   1       1.1112572240      1.0000000000
 F 1 
   1       0.5051169200      1.0000000000
 F 1 
   1       0.2295986000      1.0000000000
 F 1 
   1       0.1043630000      1.0000000000
---------------------------------
AUXILIARY/C BASIS SET INFORMATION
---------------------------------
There are 5 groups of distinct atoms

 Group   1 Type Cu  : 23s20p18d17f13g5h contracted to 23s20p18d17f13g5h pattern {11111111111111111111111/11111111111111111111/111111111111111111/11111111111111111/1111111111111/11111}
 Group   2 Type Se  : 22s20p18d18f14g6h contracted to 22s20p18d18f14g6h pattern {1111111111111111111111/11111111111111111111/111111111111111111/111111111111111111/11111111111111/111111}
 Group   3 Type C   : 17s14p13d4f contracted to 17s14p13d4f pattern {11111111111111111/11111111111111/1111111111111/1111}
 Group   4 Type C   : 16s14p13d4f contracted to 16s14p13d4f pattern {1111111111111111/11111111111111/1111111111111/1111}
 Group   5 Type H   : 12s5p4d3f contracted to 12s5p4d3f pattern {111111111111/11111/1111/111}

Atom   0Cu   basis set group =>   1
Atom   1Se   basis set group =>   2
Atom   2C    basis set group =>   3
Atom   3Se   basis set group =>   2
Atom   4C    basis set group =>   4
Atom   5Se   basis set group =>   2
Atom   6C    basis set group =>   3
Atom   7Se   basis set group =>   2
Atom   8C    basis set group =>   3
Atom   9C    basis set group =>   3
Atom  10C    basis set group =>   3
Atom  11C    basis set group =>   3
Atom  12H    basis set group =>   5
Atom  13C    basis set group =>   3
Atom  14H    basis set group =>   5
Atom  15H    basis set group =>   5
Atom  16H    basis set group =>   5
Atom  17C    basis set group =>   3
Atom  18C    basis set group =>   3
Atom  19C    basis set group =>   3
Atom  20H    basis set group =>   5
Atom  21C    basis set group =>   3
Atom  22H    basis set group =>   5
Atom  23H    basis set group =>   5
Atom  24H    basis set group =>   5

-------------------------------------
AUXILIARY/C BASIS SET IN INPUT FORMAT
-------------------------------------

 # Auxiliary/C basis set for element : H 
 NewAuxCGTO H 
 S 1 
   1      35.9414656527      1.0000000000
 S 1 
   1      19.9674809182      1.0000000000
 S 1 
   1      11.0930449545      1.0000000000
 S 1 
   1       6.1628027525      1.0000000000
 S 1 
   1       3.4237793070      1.0000000000
 S 1 
   1       1.9020996150      1.0000000000
 S 1 
   1       1.0567220083      1.0000000000
 S 1 
   1       0.5870677824      1.0000000000
 S 1 
   1       0.3261487680      1.0000000000
 S 1 
   1       0.1811937600      1.0000000000
 S 1 
   1       0.1006632000      1.0000000000
 S 1 
   1       0.0559240000      1.0000000000
 P 1 
   1       2.0286240000      1.0000000000
 P 1 
   1       1.0143120000      1.0000000000
 P 1 
   1       0.5071560000      1.0000000000
 P 1 
   1       0.2535780000      1.0000000000
 P 1 
   1       0.1267890000      1.0000000000
 D 1 
   1       2.1046197920      1.0000000000
 D 1 
   1       0.9566453600      1.0000000000
 D 1 
   1       0.4348388000      1.0000000000
 D 1 
   1       0.1976540000      1.0000000000
 F 1 
   1       1.8869562800      1.0000000000
 F 1 
   1       0.8577074000      1.0000000000
 F 1 
   1       0.3898670000      1.0000000000
  end;

 # Auxiliary/C basis set for element : Cu
 NewAuxCGTO Cu
 S 1 
   1   12815.8936556437      1.0000000000
 S 1 
   1    7119.9409198021      1.0000000000
 S 1 
   1    3955.5227332234      1.0000000000
 S 1 
   1    2197.5126295685      1.0000000000
 S 1 
   1    1220.8403497603      1.0000000000
 S 1 
   1     678.2446387557      1.0000000000
 S 1 
   1     376.8025770865      1.0000000000
 S 1 
   1     209.3347650481      1.0000000000
 S 1 
   1     116.2970916934      1.0000000000
 S 1 
   1      64.6094953852      1.0000000000
 S 1 
   1      35.8941641029      1.0000000000
 S 1 
   1      19.9412022794      1.0000000000
 S 1 
   1      11.0784457108      1.0000000000
 S 1 
   1       6.1546920615      1.0000000000
 S 1 
   1       3.4192733675      1.0000000000
 S 1 
   1       1.8995963153      1.0000000000
 S 1 
   1       1.0553312863      1.0000000000
 S 1 
   1       0.5862951590      1.0000000000
 S 1 
   1       0.3257195328      1.0000000000
 S 1 
   1       0.1809552960      1.0000000000
 S 1 
   1       0.1005307200      1.0000000000
 S 1 
   1       0.0558504000      1.0000000000
 S 1 
   1       0.0310280000      1.0000000000
 P 1 
   1    3281.6792962385      1.0000000000
 P 1 
   1    1823.1551645769      1.0000000000
 P 1 
   1    1012.8639803205      1.0000000000
 P 1 
   1     562.7022112892      1.0000000000
 P 1 
   1     312.6123396051      1.0000000000
 P 1 
   1     173.6735220028      1.0000000000
 P 1 
   1      96.4852900016      1.0000000000
 P 1 
   1      53.6029388898      1.0000000000
 P 1 
   1      29.7794104943      1.0000000000
 P 1 
   1      16.5441169413      1.0000000000
 P 1 
   1       9.1911760785      1.0000000000
 P 1 
   1       5.1062089325      1.0000000000
 P 1 
   1       2.8367827403      1.0000000000
 P 1 
   1       1.5759904113      1.0000000000
 P 1 
   1       0.8755502285      1.0000000000
 P 1 
   1       0.4864167936      1.0000000000
 P 1 
   1       0.2702315520      1.0000000000
 P 1 
   1       0.1501286400      1.0000000000
 P 1 
   1       0.0834048000      1.0000000000
 P 1 
   1       0.0463360000      1.0000000000
 D 1 
   1    1347.4833218853      1.0000000000
 D 1 
   1     748.6018454918      1.0000000000
 D 1 
   1     415.8899141621      1.0000000000
 D 1 
   1     231.0499523123      1.0000000000
 D 1 
   1     128.3610846179      1.0000000000
 D 1 
   1      71.3117136766      1.0000000000
 D 1 
   1      39.6176187092      1.0000000000
 D 1 
   1      22.0097881718      1.0000000000
 D 1 
   1      12.2276600954      1.0000000000
 D 1 
   1       6.7931444975      1.0000000000
 D 1 
   1       3.7739691653      1.0000000000
 D 1 
   1       2.0966495363      1.0000000000
 D 1 
   1       1.1648052979      1.0000000000
 D 1 
   1       0.6471140544      1.0000000000
 D 1 
   1       0.3595078080      1.0000000000
 D 1 
   1       0.1997265600      1.0000000000
 D 1 
   1       0.1109592000      1.0000000000
 D 1 
   1       0.0616440000      1.0000000000
 F 1 
   1    1089.9683674044      1.0000000000
 F 1 
   1     605.5379818913      1.0000000000
 F 1 
   1     336.4099899396      1.0000000000
 F 1 
   1     186.8944388553      1.0000000000
 F 1 
   1     103.8302438085      1.0000000000
 F 1 
   1      57.6834687825      1.0000000000
 F 1 
   1      32.0463715458      1.0000000000
 F 1 
   1      17.8035397477      1.0000000000
 F 1 
   1       9.8908554154      1.0000000000
 F 1 
   1       5.4949196752      1.0000000000
 F 1 
   1       3.0527331529      1.0000000000
 F 1 
   1       1.6959628627      1.0000000000
 F 1 
   1       0.9422015904      1.0000000000
 F 1 
   1       0.5234453280      1.0000000000
 F 1 
   1       0.2908029600      1.0000000000
 F 1 
   1       0.1615572000      1.0000000000
 F 1 
   1       0.0897540000      1.0000000000
 G 1 
   1     136.3487739404      1.0000000000
 G 1 
   1      75.7493188558      1.0000000000
 G 1 
   1      42.0829549199      1.0000000000
 G 1 
   1      23.3794193999      1.0000000000
 G 1 
   1      12.9885663333      1.0000000000
 G 1 
   1       7.2158701852      1.0000000000
 G 1 
   1       4.0088167695      1.0000000000
 G 1 
   1       2.2271204275      1.0000000000
 G 1 
   1       1.2372891264      1.0000000000
 G 1 
   1       0.6873828480      1.0000000000
 G 1 
   1       0.3818793600      1.0000000000
 G 1 
   1       0.2121552000      1.0000000000
 G 1 
   1       0.1178640000      1.0000000000
 H 1 
   1       5.8747580812      1.0000000000
 H 1 
   1       2.5542426440      1.0000000000
 H 1 
   1       1.1105402800      1.0000000000
 H 1 
   1       0.4828436000      1.0000000000
 H 1 
   1       0.2099320000      1.0000000000
  end;

 # Auxiliary/C basis set for element : Se
 NewAuxCGTO Se
 S 1 
   1   14428.7846939293      1.0000000000
 S 1 
   1    8015.9914966274      1.0000000000
 S 1 
   1    4453.3286092374      1.0000000000
 S 1 
   1    2474.0714495763      1.0000000000
 S 1 
   1    1374.4841386535      1.0000000000
 S 1 
   1     763.6022992520      1.0000000000
 S 1 
   1     424.2234995844      1.0000000000
 S 1 
   1     235.6797219913      1.0000000000
 S 1 
   1     130.9331788841      1.0000000000
 S 1 
   1      72.7406549356      1.0000000000
 S 1 
   1      40.4114749642      1.0000000000
 S 1 
   1      22.4508194246      1.0000000000
 S 1 
   1      12.4726774581      1.0000000000
 S 1 
   1       6.9292652545      1.0000000000
 S 1 
   1       3.8495918081      1.0000000000
 S 1 
   1       2.1386621156      1.0000000000
 S 1 
   1       1.1881456198      1.0000000000
 S 1 
[...]
  X      -0.8205339    0.2347235    0.5211803
  Y       0.1940164    0.9720336   -0.1323190
  Z      -0.5376632   -0.0074547   -0.8431268

Note: Tensor is right-handed


 Quadrupole tensor eigenvalues (in MHz;Q= 0.0029 I=  1.0)
  e**2qQ            =     0.216165 MHz 
  e**2qQ/(4I*(2I-1))=     0.054041 MHz 
  eta               =     0.092127
  NOTE: the diagonal representation of the SH term I*Q*I = e**2qQ/(4I(2I-1))*[-(1-eta),-(1+eta),2]

 RHO(0)=      0.477575559 a.u.**-3

 -----------------------------------------------------------
 Nucleus  16H : A:ISTP=    1 I=  0.5 P=533.5514 MHz/au**3
                Q:ISTP=    2 I=  1.0 Q=  0.0029 barn     
 -----------------------------------------------------------
 Solving for nuclear perturbation:
Forming RHS of the CP-SCF equations         ... 
Calc. nucleus orbit integrals (SHARK)       ... done

Forming final perturbed densities           ... done
Transforming perturbed density to AO basis  ... done

 Raw HFC matrix (all values in MHz): 
 -----------------------------------
                 1.0810              -0.0621               0.1352
                -0.0440               0.8171              -0.0312
                 0.1217              -0.0118               1.9933

 A(FC)           1.2865               1.2865               1.2865
 A(SD)          -0.4898              -0.2323               0.7221
 A(ORB+DIA)      0.0103               0.0186               0.0030    A(PC) =   0.0107
 A(ORB)          0.0104               0.0188               0.0028    A(PC) =   0.0107
 A(DIA)         -0.0001              -0.0002               0.0002    A(PC) =  -0.0000
             ----------           ----------           ----------
 A(Tot)          0.8070               1.0727               2.0116    A(iso)=    1.2971
 Orientation: 
  X           0.2142981           -0.9658924            0.1453553
  Y           0.9767681            0.2118246           -0.0324708
  Z           0.0005734            0.1489369            0.9888465

Notes:  (1) The A matrix conforms to the "SAI" spin Hamiltonian convention.
        (2) Tensor is right-handed.

 Raw EFG matrix (all values in a.u.**-3):
 -----------------------------------
            -0.0206      -0.0390       0.2056
            -0.0390      -0.1660      -0.0524
             0.2056      -0.0524       0.1866

 V(El)       0.6339       0.8898      -1.5238
 V(Nuc)     -0.7800      -1.0656       1.8457
         ----------   ----------   ----------
 V(Tot)     -0.1461      -0.1758       0.3219 
 Orientation: 
  X      -0.8205339    0.2347235   -0.5211803
  Y       0.1940164    0.9720336    0.1323190
  Z       0.5376632    0.0074547   -0.8431268

Note: Tensor is right-handed


 Quadrupole tensor eigenvalues (in MHz;Q= 0.0029 I=  1.0)
  e**2qQ            =     0.216165 MHz 
  e**2qQ/(4I*(2I-1))=     0.054041 MHz 
  eta               =     0.092127
  NOTE: the diagonal representation of the SH term I*Q*I = e**2qQ/(4I(2I-1))*[-(1-eta),-(1+eta),2]

 RHO(0)=      0.477575559 a.u.**-3

 -----------------------------------------------------------
 Nucleus  20H : A:ISTP=    1 I=  0.5 P=533.5514 MHz/au**3
                Q:ISTP=    2 I=  1.0 Q=  0.0029 barn     
 -----------------------------------------------------------
 Solving for nuclear perturbation:
Forming RHS of the CP-SCF equations         ... 
Calc. nucleus orbit integrals (SHARK)       ... done

Forming final perturbed densities           ... done
Transforming perturbed density to AO basis  ... done

 Raw HFC matrix (all values in MHz): 
 -----------------------------------
                 2.6407              -0.3797               0.8242
                -0.4457               1.4413              -0.4889
                 0.8437              -0.4525               4.7688

 A(FC)           2.9283               2.9283               2.9283
 A(SD)          -1.6557              -0.5524               2.2081
 A(ORB+DIA)      0.0285               0.0261               0.0113    A(PC) =   0.0220
 A(ORB)          0.0291               0.0268               0.0108    A(PC) =   0.0222
 A(DIA)         -0.0006              -0.0007               0.0005    A(PC) =  -0.0002
             ----------           ----------           ----------
 A(Tot)          1.3010               2.4020               5.1477    A(iso)=    2.9502
 Orientation: 
  X           0.2140258           -0.9192141            0.3305124
  Y           0.9727144            0.1695349           -0.1583815
  Z           0.0895531            0.3553919            0.9304176

Notes:  (1) The A matrix conforms to the "SAI" spin Hamiltonian convention.
        (2) Tensor is right-handed.

 Raw EFG matrix (all values in a.u.**-3):
 -----------------------------------
             0.2249      -0.1632       0.0017
            -0.1632      -0.0912       0.0008
             0.0017       0.0008      -0.1337

 V(El)       0.0386       1.1422      -1.1808
 V(Nuc)     -0.1722      -1.3026       1.4748
         ----------   ----------   ----------
 V(Tot)     -0.1336      -0.1604       0.2940 
 Orientation: 
  X       0.0177670    0.3896774   -0.9207800
  Y       0.0491459    0.9194718    0.3900721
  Z       0.9986336   -0.0521830   -0.0028148

Note: Tensor is right-handed


 Quadrupole tensor eigenvalues (in MHz;Q= 0.0029 I=  1.0)
  e**2qQ            =     0.197416 MHz 
  e**2qQ/(4I*(2I-1))=     0.049354 MHz 
  eta               =     0.091182
  NOTE: the diagonal representation of the SH term I*Q*I = e**2qQ/(4I(2I-1))*[-(1-eta),-(1+eta),2]

 RHO(0)=      0.475066814 a.u.**-3

 -----------------------------------------------------------
 Nucleus  22H : A:ISTP=    1 I=  0.5 P=533.5514 MHz/au**3
                Q:ISTP=    2 I=  1.0 Q=  0.0029 barn     
 -----------------------------------------------------------
 Solving for nuclear perturbation:
Forming RHS of the CP-SCF equations         ... 
Calc. nucleus orbit integrals (SHARK)       ... done

Forming final perturbed densities           ... done
Transforming perturbed density to AO basis  ... done

 Raw HFC matrix (all values in MHz): 
 -----------------------------------
                 2.5306              -0.4948              -0.8520
                -0.4306               1.3799               0.4873
                -0.8711               0.5167               4.7674

 A(FC)           2.9283               2.9283               2.9283
 A(SD)          -1.6579              -0.5502               2.2081
 A(ORB+DIA)     -0.0640              -0.0710               0.0281    A(PC) =  -0.0356
 A(ORB)         -0.0634              -0.0703               0.0276    A(PC) =  -0.0354
 A(DIA)         -0.0006              -0.0007               0.0005    A(PC) =  -0.0002
             ----------           ----------           ----------
 A(Tot)          1.2063               2.3071               5.1645    A(iso)=    2.8926
 Orientation: 
  X           0.3228384           -0.8864152           -0.3317281
  Y           0.9451891            0.2838392            0.1614090
  Z          -0.0489180           -0.3656548            0.9294641

Notes:  (1) The A matrix conforms to the "SAI" spin Hamiltonian convention.
        (2) Tensor is right-handed.

 Raw EFG matrix (all values in a.u.**-3):
 -----------------------------------
             0.2249      -0.1632      -0.0017
            -0.1632      -0.0912      -0.0008
            -0.0017      -0.0008      -0.1337

 V(El)       0.0386       1.1422      -1.1808
 V(Nuc)     -0.1722      -1.3026       1.4748
         ----------   ----------   ----------
 V(Tot)     -0.1336      -0.1604       0.2940 
 Orientation: 
  X      -0.0177670    0.3896774   -0.9207800
  Y      -0.0491459    0.9194718    0.3900721
  Z       0.9986336    0.0521830    0.0028148

Note: Tensor is right-handed


 Quadrupole tensor eigenvalues (in MHz;Q= 0.0029 I=  1.0)
  e**2qQ            =     0.197416 MHz 
  e**2qQ/(4I*(2I-1))=     0.049354 MHz 
  eta               =     0.091182
  NOTE: the diagonal representation of the SH term I*Q*I = e**2qQ/(4I(2I-1))*[-(1-eta),-(1+eta),2]

 RHO(0)=      0.475066814 a.u.**-3

 -----------------------------------------------------------
 Nucleus  23H : A:ISTP=    1 I=  0.5 P=533.5514 MHz/au**3
                Q:ISTP=    2 I=  1.0 Q=  0.0029 barn     
 -----------------------------------------------------------
 Solving for nuclear perturbation:
Forming RHS of the CP-SCF equations         ... 
Calc. nucleus orbit integrals (SHARK)       ... done

Forming final perturbed densities           ... done
Transforming perturbed density to AO basis  ... done

 Raw HFC matrix (all values in MHz): 
 -----------------------------------
                 0.8102              -0.0903               0.1287
                -0.0625               0.6537              -0.1300
                 0.1153              -0.1082               1.7469

 A(FC)           1.0556               1.0556               1.0556
 A(SD)          -0.4470              -0.2623               0.7093
 A(ORB+DIA)      0.0102               0.0217               0.0120    A(PC) =   0.0146
 A(ORB)          0.0103               0.0219               0.0118    A(PC) =   0.0147
 A(DIA)         -0.0001              -0.0002               0.0002    A(PC) =  -0.0000
             ----------           ----------           ----------
 A(Tot)          0.6188               0.8151               1.7770    A(iso)=    1.0703
 Orientation: 
  X           0.3679663           -0.9190110            0.1414908
  Y           0.9276856            0.3524885           -0.1230907
  Z           0.0632478            0.1765522            0.9822571

Notes:  (1) The A matrix conforms to the "SAI" spin Hamiltonian convention.
        (2) Tensor is right-handed.

 Raw EFG matrix (all values in a.u.**-3):
 -----------------------------------
            -0.0368      -0.0561       0.0782
            -0.0561      -0.0401      -0.1009
             0.0782      -0.1009       0.0768

 V(El)       0.5469       0.7317      -1.2786
 V(Nuc)     -0.6230      -0.8334       1.4564
         ----------   ----------   ----------
 V(Tot)     -0.0761      -0.1017       0.1778 
 Orientation: 
  X       0.8473213   -0.3399489   -0.4080212
  Y      -0.1254977   -0.8746933    0.4681474
  Z      -0.5160396   -0.3454656   -0.7838091

Note: Tensor is right-handed


 Quadrupole tensor eigenvalues (in MHz;Q= 0.0029 I=  1.0)
  e**2qQ            =     0.119397 MHz 
  e**2qQ/(4I*(2I-1))=     0.029849 MHz 
  eta               =     0.144114
  NOTE: the diagonal representation of the SH term I*Q*I = e**2qQ/(4I(2I-1))*[-(1-eta),-(1+eta),2]

 RHO(0)=      0.424679970 a.u.**-3

 -----------------------------------------------------------
 Nucleus  24H : A:ISTP=    1 I=  0.5 P=533.5514 MHz/au**3
                Q:ISTP=    2 I=  1.0 Q=  0.0029 barn     
 -----------------------------------------------------------
 Solving for nuclear perturbation:
Forming RHS of the CP-SCF equations         ... 
Calc. nucleus orbit integrals (SHARK)       ... done

Forming final perturbed densities           ... done
Transforming perturbed density to AO basis  ... done

 Raw HFC matrix (all values in MHz): 
 -----------------------------------
                 0.7512              -0.0691              -0.0948
                -0.0644               0.6355               0.1220
                -0.1077               0.1385               1.7244

 A(FC)           1.0556               1.0556               1.0556
 A(SD)          -0.4471              -0.2621               0.7092
 A(ORB+DIA)     -0.0091              -0.0332              -0.0134    A(PC) =  -0.0186
 A(ORB)         -0.0090              -0.0331              -0.0136    A(PC) =  -0.0186
 A(DIA)         -0.0001              -0.0002               0.0002    A(PC) =  -0.0000
             ----------           ----------           ----------
 A(Tot)          0.5994               0.7603               1.7515    A(iso)=    1.0371
 Orientation: 
  X           0.3814884           -0.9187399           -0.1019001
  Y           0.9219092            0.3701081            0.1144706
  Z          -0.0674547           -0.1376118            0.9881866

Notes:  (1) The A matrix conforms to the "SAI" spin Hamiltonian convention.
        (2) Tensor is right-handed.

 Raw EFG matrix (all values in a.u.**-3):
 -----------------------------------
            -0.0368      -0.0561      -0.0782
            -0.0561      -0.0401       0.1009
            -0.0782       0.1009       0.0768

 V(El)       0.5469       0.7317      -1.2786
 V(Nuc)     -0.6230      -0.8334       1.4564
         ----------   ----------   ----------
 V(Tot)     -0.0761      -0.1017       0.1778 
 Orientation: 
  X      -0.8473213    0.3399489    0.4080212
  Y       0.1254977    0.8746933   -0.4681474
  Z      -0.5160396   -0.3454656   -0.7838091

Note: Tensor is right-handed


 Quadrupole tensor eigenvalues (in MHz;Q= 0.0029 I=  1.0)
  e**2qQ            =     0.119397 MHz 
  e**2qQ/(4I*(2I-1))=     0.029849 MHz 
  eta               =     0.144114
  NOTE: the diagonal representation of the SH term I*Q*I = e**2qQ/(4I(2I-1))*[-(1-eta),-(1+eta),2]

 RHO(0)=      0.424679970 a.u.**-3

 -----------------------------------------------------------
 Nucleus   0Cu: A:ISTP=   63 I=  1.5 P=141.6005 MHz/au**3
                Q:ISTP=   63 I=  1.5 Q= -0.2200 barn     
 -----------------------------------------------------------
 Solving for nuclear perturbation:
Forming RHS of the CP-SCF equations         ... 
Calc. nucleus orbit integrals (SHARK)       ... done

Forming final perturbed densities           ... done
Transforming perturbed density to AO basis  ... done

 Raw HFC matrix (all values in MHz): 
 -----------------------------------
               -60.8583             -85.4959             -11.0745
               -84.1927            -395.1889              -0.5256
                -3.9223             -16.4279             -37.1421

 A(FC)        -198.1467            -198.1467            -198.1467
 A(SD)         138.9813             139.0010            -277.9823
 A(ORB+DIA)     25.7337              15.0110              60.5063    A(PC) =  33.7503
 A(ORB)         25.7340              15.0113              60.5084    A(PC) =  33.7512
 A(DIA)         -0.0003              -0.0003              -0.0022    A(PC) =  -0.0009
             ----------           ----------           ----------
 A(Tot)        -33.4317             -44.1348            -415.6227    A(iso)= -164.3964
 Orientation: 
  X          -0.6785931            0.6958462            0.2351797
  Y           0.1582064           -0.1742017            0.9719180
  Z           0.7172741            0.6967437            0.0081247

Notes:  (1) The A matrix conforms to the "SAI" spin Hamiltonian convention.
        (2) Tensor is right-handed.

 Raw EFG matrix (all values in a.u.**-3):
 -----------------------------------
             1.0648      -0.7035       0.0000
            -0.7035      -1.7869      -0.0000
             0.0000      -0.0000       0.7221

 V(El)      -0.5791       0.8404      -0.2613
 V(Nuc)      1.3011       0.3886      -1.6897
         ----------   ----------   ----------
 V(Tot)      0.7221       1.2290      -1.9510 
 Orientation: 
  X      -0.0000000    0.9738527    0.2271805
  Y      -0.0000000   -0.2271805    0.9738527
  Z       1.0000000    0.0000000    0.0000000

Note: Tensor is right-handed


 Quadrupole tensor eigenvalues (in MHz;Q=-0.2200 I=  1.5)
  e**2qQ            =   100.853117 MHz 
  e**2qQ/(4I*(2I-1))=     8.404426 MHz 
  eta               =     0.259817
  NOTE: the diagonal representation of the SH term I*Q*I = e**2qQ/(4I(2I-1))*[-(1-eta),-(1+eta),2]

 RHO(0)=  37592.793780005 a.u.**-3


--------------------------------------------------------------------------------
----------------------------------------------------------------------------
                           ORCA EULER ANGLE PROGRAM
----------------------------------------------------------------------------

Only g-tensor available        -->  using g-tensor as reference tensor

Reference tensor               ...  g

g-tensor ordering              ...  |g_min> --> |gx>
                                    |g_mid> --> |gy>
                                    |g_max> --> |gz>

A- and EFG-tensor ordering     ...  the axes |Ax>, |Qx>, |Ay>, etc. are assigned
                                    such that the Euler rotation is minimal. You
                                    can find the respective eigenvalues as Ax,
                                    EFGx, Ay, etc. in the tables below.
                                    The relation of |Ax>, |Ay>,  etc. to Amin, Amid, etc.
                                    (as printed in the ORCA EPR/NMR CALCULATION Output)
                                    is obtained in the detailed printout.

Euler rotation around          ...  z - y - z
   First rotation              -->  by alpha around z
   Second rotation             -->  by beta around y'
   Third rotation              -->  by gamma around z''
   Positive / Negative angle   -->  clockwise / counterclockwise rotation

Plot EFG-tensors                    (-)
Plot HFC-tensors                    (-)
Detailed Printout                   (-)

-------------------------------------------------------------------------
          Euler rotation of hyperfine tensor to g-tensor
-------------------------------------------------------------------------

-------------------------------------------------------------------
 Atom  |   Alpha    Beta    Gamma   |   Ax       Ay       Az 
       |          [degrees]         |           [MHz]         
-------------------------------------------------------------------
 12H     -144.0     42.3    128.0       5.12     2.25     1.07
 14H     -102.6     41.5    137.2       2.29     5.10     1.16
 15H     -160.9     41.0    130.3       2.00     1.03     0.78
 16H     -177.9     40.6    133.7       2.01     1.07     0.81
 20H     -101.2     45.6    134.9       2.40     5.15     1.30
 22H     -139.7     39.5    122.8       5.16     2.31     1.21
 23H       80.4     44.3    -44.8       0.82     0.62     1.78
 24H     -148.9     39.8    116.9       1.75     0.76     0.60
  0Cu    -123.9     41.2    131.9     -33.43   -44.13  -415.62
-------------------------------------------------------------------


-------------------------------------------------------------------------------
    Euler rotation of Electric Field Gradient (EFG) tensor to g-tensor
-------------------------------------------------------------------------------

-------------------------------------------------------------------
 Atom  |   Alpha    Beta    Gamma  |   EFGx     EFGy     EFGz
       |          [degrees]        |         [a.u.**-3]       
-------------------------------------------------------------------
 12H     -168.1     40.8    131.8     -0.15     0.32    -0.18
 14H     -167.8     40.7    131.8     -0.15     0.32    -0.18
 15H     -135.4     40.3    131.7      0.32    -0.15    -0.18
 16H     -110.6     41.2    132.0     -0.15     0.32    -0.18
 20H     -156.6     40.8    116.7     -0.13     0.29    -0.16
 22H     -159.3     46.3    120.0     -0.13     0.29    -0.16
 23H      120.2     32.7    -86.1     -0.08    -0.10     0.18
 24H     -112.4     24.8    104.2      0.18    -0.08    -0.10
  0Cu    -168.5     40.7    132.5      0.72     1.23    -1.95
-------------------------------------------------------------------


Maximum memory used throughout the entire EPRNMR-calculation: 788.9 MB

Timings for individual modules:

Sum of individual times         ...    61082.621 sec (=1018.044 min)
GTO integral calculation        ...       73.016 sec (=   1.217 min)   0.1 %
Spin-Orbit-Coupling Matrices    ...      963.556 sec (=  16.059 min)   1.6 %
SCF iterations                  ...     2807.469 sec (=  46.791 min)   4.6 %
EPR/NMR calculation             ...    57238.580 sec (= 953.976 min)  93.7 %
                             ****ORCA TERMINATED NORMALLY****
TOTAL RUN TIME: 0 days 17 hours 3 minutes 33 seconds 671 msec
