
                                 *****************
                                 * O   R   C   A *
                                 *****************

                                            #,                                       
                                            ###                                      
                                            ####                                     
                                            #####                                    
                                            ######                                   
                                           ########,                                 
                                     ,,################,,,,,                         
                               ,,#################################,,                 
                          ,,##########################################,,             
                       ,#########################################, ''#####,          
                    ,#############################################,,   '####,        
                  ,##################################################,,,,####,       
                ,###########''''           ''''###############################       
              ,#####''   ,,,,##########,,,,          '''####'''          '####       
            ,##' ,,,,###########################,,,                        '##       
           ' ,,###''''                  '''############,,,                           
         ,,##''                                '''############,,,,        ,,,,,,###''
      ,#''                                            '''#######################'''  
     '                                                          ''''####''''         
             ,#######,   #######,   ,#######,      ##                                
            ,#'     '#,  ##    ##  ,#'     '#,    #''#        ######   ,####,        
            ##       ##  ##   ,#'  ##            #'  '#       #        #'  '#        
            ##       ##  #######   ##           ,######,      #####,   #    #        
            '#,     ,#'  ##    ##  '#,     ,#' ,#      #,         ##   #,  ,#        
             '#######'   ##     ##  '#######'  #'      '#     #####' # '####'        



                  #######################################################
                  #                        -***-                        #
                  #          Department of theory and spectroscopy      #
                  #    Directorship and core code : Frank Neese         #
                  #        Max Planck Institute fuer Kohlenforschung    #
                  #                Kaiser Wilhelm Platz 1               #
                  #                 D-45470 Muelheim/Ruhr               #
                  #                      Germany                        #
                  #                                                     #
                  #                  All rights reserved                #
                  #                        -***-                        #
                  #######################################################


                         Program Version 5.0.4 -  RELEASE  -


 With contributions from (in alphabetic order):
   Daniel Aravena         : Magnetic Suceptibility
   Michael Atanasov       : Ab Initio Ligand Field Theory (pilot matlab implementation)
   Alexander A. Auer      : GIAO ZORA, VPT2 properties, NMR spectrum
   Ute Becker             : Parallelization
   Giovanni Bistoni       : ED, misc. LED, open-shell LED, HFLD
   Martin Brehm           : Molecular dynamics
   Dmytro Bykov           : SCF Hessian
   Vijay G. Chilkuri      : MRCI spin determinant printing, contributions to CSF-ICE
   Dipayan Datta          : RHF DLPNO-CCSD density
   Achintya Kumar Dutta   : EOM-CC, STEOM-CC
   Dmitry Ganyushin       : Spin-Orbit,Spin-Spin,Magnetic field MRCI
   Miquel Garcia          : C-PCM and meta-GGA Hessian, CC/C-PCM, Gaussian charge scheme
   Yang Guo               : DLPNO-NEVPT2, F12-NEVPT2, CIM, IAO-localization
   Andreas Hansen         : Spin unrestricted coupled pair/coupled cluster methods
   Benjamin Helmich-Paris : MC-RPA, TRAH-SCF, COSX integrals
   Lee Huntington         : MR-EOM, pCC
   Robert Izsak           : Overlap fitted RIJCOSX, COSX-SCS-MP3, EOM
   Marcus Kettner         : VPT2
   Christian Kollmar      : KDIIS, OOCD, Brueckner-CCSD(T), CCSD density, CASPT2, CASPT2-K
   Simone Kossmann        : Meta GGA functionals, TD-DFT gradient, OOMP2, MP2 Hessian
   Martin Krupicka        : Initial AUTO-CI
   Lucas Lang             : DCDCAS
   Marvin Lechner         : AUTO-CI (C++ implementation), FIC-MRCC
   Dagmar Lenk            : GEPOL surface, SMD
   Dimitrios Liakos       : Extrapolation schemes; Compound Job, initial MDCI parallelization
   Dimitrios Manganas     : Further ROCIS development; embedding schemes
   Dimitrios Pantazis     : SARC Basis sets
   Anastasios Papadopoulos: AUTO-CI, single reference methods and gradients
   Taras Petrenko         : DFT Hessian,TD-DFT gradient, ASA, ECA, R-Raman, ABS, FL, XAS/XES, NRVS
   Peter Pinski           : DLPNO-MP2, DLPNO-MP2 Gradient
   Christoph Reimann      : Effective Core Potentials
   Marius Retegan         : Local ZFS, SOC
   Christoph Riplinger    : Optimizer, TS searches, QM/MM, DLPNO-CCSD(T), (RO)-DLPNO pert. Triples
   Tobias Risthaus        : Range-separated hybrids, TD-DFT gradient, RPA, STAB
   Michael Roemelt        : Original ROCIS implementation
   Masaaki Saitow         : Open-shell DLPNO-CCSD energy and density
   Barbara Sandhoefer     : DKH picture change effects
   Avijit Sen             : IP-ROCIS
   Kantharuban Sivalingam : CASSCF convergence, NEVPT2, FIC-MRCI
   Bernardo de Souza      : ESD, SOC TD-DFT
   Georgi Stoychev        : AutoAux, RI-MP2 NMR, DLPNO-MP2 response
   Willem Van den Heuvel  : Paramagnetic NMR
   Boris Wezisla          : Elementary symmetry handling
   Frank Wennmohs         : Technical directorship


 We gratefully acknowledge several colleagues who have allowed us to
 interface, adapt or use parts of their codes:
   Stefan Grimme, W. Hujo, H. Kruse, P. Pracht,  : VdW corrections, initial TS optimization,
                  C. Bannwarth, S. Ehlert          DFT functionals, gCP, sTDA/sTD-DF
   Ed Valeev, F. Pavosevic, A. Kumar             : LibInt (2-el integral package), F12 methods
   Garnet Chan, S. Sharma, J. Yang, R. Olivares  : DMRG
   Ulf Ekstrom                                   : XCFun DFT Library
   Mihaly Kallay                                 : mrcc  (arbitrary order and MRCC methods)
   Jiri Pittner, Ondrej Demel                    : Mk-CCSD
   Frank Weinhold                                : gennbo (NPA and NBO analysis)
   Christopher J. Cramer and Donald G. Truhlar   : smd solvation model
   Lars Goerigk                                  : TD-DFT with DH, B97 family of functionals
   V. Asgeirsson, H. Jonsson                     : NEB implementation
   FAccTs GmbH                                   : IRC, NEB, NEB-TS, DLPNO-Multilevel, CI-OPT
                                                   MM, QMMM, 2- and 3-layer-ONIOM, Crystal-QMMM,
                                                   LR-CPCM, SF, NACMEs, symmetry and pop. for TD-DFT,
                                                   nearIR, NL-DFT gradient (VV10), updates on ESD,
                                                   ML-optimized integration grids
   S Lehtola, MJT Oliveira, MAL Marques          : LibXC Library
   Liviu Ungur et al                             : ANISO software


 Your calculation uses the libint2 library for the computation of 2-el integrals
 For citations please refer to: http://libint.valeyev.net

 Your ORCA version has been built with support for libXC version: 5.1.0
 For citations please refer to: https://tddft.org/programs/libxc/

 This ORCA versions uses:
   CBLAS   interface :  Fast vector & matrix operations
   LAPACKE interface :  Fast linear algebra routines
   SCALAPACK package :  Parallel linear algebra routines
   Shared memory     :  Shared parallel matrices
   BLAS/LAPACK       :  OpenBLAS 0.3.15  USE64BITINT DYNAMIC_ARCH NO_AFFINITY Prescott SINGLE_THREADED
        Core in use  :  Prescott
   Copyright (c) 2011-2014, The OpenBLAS Project


================================================================================

----- Orbital basis set information -----
Your calculation utilizes the basis: TZVP 

The basis set includes element-specific modifications.

Your calculation utilizes the basis: CP(PPP) 

----- AuxJ basis set information -----
Your calculation utilizes the auxiliary basis: def2/J
   F. Weigend, Phys. Chem. Chem. Phys. 8, 1057 (2006).

================================================================================
                                        WARNINGS
                       Please study these warnings very carefully!
================================================================================


WARNING: your system is open-shell and RHF/RKS was chosen
  ===> : WILL SWITCH to UHF/UKS


INFO   : the flag for use of the SHARK integral package has been found!

================================================================================
                                       INPUT FILE
================================================================================
NAME = input_77.inp
|  1> ! nofrozencore ReducedPop printbasis
|  2> ! B3LYP TZVP
|  3> 
|  4> %basis
|  5> newgto V "CP(PPP)" end
|  6> end
|  7> 
|  8> %pal
|  9> nprocs 6
| 10> end
| 11> 
| 12> % sym SymThresh 1e-2 end
| 13> * xyz -2 2 
| 14> V 0.6929821371598414 -0.2143043399707381 0.5614884241380981
| 15> S 2.068727830697792 0.9783767587140324 -1.0407139441780493
| 16> S -0.06302592437742568 1.9493592623389333 1.3799783809494186
| 17> S 0.7621743013017347 -2.1380142825491095 -0.9187687094760179
| 18> S -1.375840034012698 -1.1499990187061309 1.394713751658337
| 19> O 2.2662914402886973 -0.8114051554239484 2.263334362574743
| 20> C -1.3938544636086816 1.4196962009888874 2.409134162811377
| 21> C -1.9187869499957924 0.17795343284269774 2.409051065978333
| 22> C 2.365756863267557 -0.2959943843136711 -2.2165862437726664
| 23> C 1.8419255702818529 -1.5381957916903484 -2.169115585452737
| 24> S -2.1726659539916136 2.617522836175782 3.491889654901054
| 25> S -3.3306199380479864 -0.08839772374599844 3.4820952326837284
| 26> S 2.261578290756529 -2.6350810264812727 -3.525452677890625
| 27> S 3.411561971420373 0.07296819459824984 -3.628130440441386
| 28> C -3.4332538734087503 1.5531496387067851 4.1286812029944615
| 29> C 3.2328481884001286 -1.4828831455540237 -4.448857649833135
| 30> C -4.3787915508860396 1.9510265451884339 5.031430731887413
| 31> C 3.795300936312447 -1.7685716418393913 -5.660562973279016
| 32> S -4.4097686831586325 3.6007417147852863 5.7027800359931025
| 33> S -5.627581583801612 0.8331823635495652 5.635616768054131
| 34> S 4.763354189384675 -0.5708577805903898 -6.5559798623102
| 35> S 3.565043469422776 -3.346460223341794 -6.45613756893293
| 36> C 2.660074894171349 -2.7642707119334355 -7.962522642509239
| 37> C 3.684188256752715 -0.40429863230702767 -8.05101462046257
| 38> C 3.423831744562877 -1.7222023673327367 -8.775416729188537
| 39> H 1.702721282907439 -2.365591690465428 -7.619622102232233
| 40> H 2.462757442889814 -3.65478002386973 -8.564179067331999
| 41> H 2.8571866082286363 -1.5102511493101873 -9.692660363977849
| 42> H 4.383754626838802 -2.1506810570309822 -9.081249015462491
| 43> H 4.186499175968791 0.3061096080975994 -8.711946335715743
| 44> H 2.74772761824148 0.046188936947963964 -7.714805523210783
| 45> C -5.157914883052605 0.8271668179638113 7.426139579873586
| 46> C -4.115601479401696 3.1786342075944374 7.481566788331042
| 47> C -5.143156912018815 2.2125717820075095 8.06511262089961
| 48> H -3.107896978584417 2.7622760847944585 7.5431299804841245
| 49> H -4.1271799150485515 4.127237538105955 8.023601747537942
| 50> H -6.138963044818514 2.6566591608808867 7.965102901762493
| 51> H -4.945334466813593 2.0991641136606365 9.139884835723363
| 52> H -5.881685154270541 0.17948574492603317 7.926610185156001
| 53> H -4.175080020314147 0.3554903465235339 7.49099898842412
| 54> * 
| 55> 
| 56> % eprnmr
| 57> gtensor true
| 58> Nuclei = all H {aiso,adip,aorb,fgrad,rho}
| 59> Nuclei = all V {aiso,adip,aorb,fgrad,rho}
| 60> end
| 61> 
| 62>                          ****END OF INPUT****
================================================================================

------------------------------------------------------------------------------
                            SYMMETRY HANDLING SETUP
------------------------------------------------------------------------------

------------------
SYMMETRY DETECTION
------------------
The point group will now be determined using a tolerance of 1.0000e-02.
Splitting atom subsets according to nuclear charge, mass and basis set.
Splitting atom subsets according to distance from the molecule's center.
Identifying relative distance patterns of the atoms.
Splitting atom subsets according to atoms' relative distance patterns.
Bring atoms of each subset into input order.
The molecule is neither linear nor planar.
There is at least one atom subset not centered around the molecule's center.
The molecule does not have a center of inversion.
Analyzing the first atom subset for its symmetry.
The subset consists of a single off-center atom.
No testing is needed for point group C1.
This point group has been found:    C1
Largest non-degenerate subgroup:    C1


Mass-centered symmetry-perfected Cartesians (point group C1):

Atom          Symmetry-perfected Cartesians (x, y, z; au)
  0       1.302880010587   -0.402196132339    1.060494624685
  1       3.902662601295    1.851644509280   -1.967229062553
  2      -0.125768180755    3.686535521960    2.607216486423
  3       1.433634251428   -4.037481084913   -1.736785965629
  4      -2.606627312714   -2.170402820116    2.635062301545
  5       4.276003717451   -1.530553147887    4.276517370456
  6      -2.640669651109    2.685617392754    4.552039063284
  7      -3.632648289179    0.339063632180    4.551882033027
  8       4.463966126676   -0.556567944015   -4.189305677251
  9       3.474068442555   -2.903988407128   -4.099599133629
 10      -4.112410077884    4.949181689174    6.598150413333
 11      -6.300625983433   -0.164267109225    6.579641637702
 12       4.267097155607   -4.976801101225   -6.662704783616
 13       6.440251370540    0.140670283794   -6.856737634881
 14      -6.494576013312    2.937807841671    7.801512043625
 15       6.102531264275   -2.799462654188   -8.407687291288
 16      -8.281383273048    3.689686229933    9.507461420759
 17       7.165412921101   -3.339335671779  -10.697478507616
 18      -8.339921569457    6.807196099447   10.776127745717
 19     -10.641254434029    1.577266866238   10.649207563053
 20       8.994768452459   -1.075984487217  -12.389571203572
 21       6.730289368389   -6.321112960660  -12.200896612507
 22       5.020146601359   -5.220934226057  -15.047551853793
 23       6.955440386727   -0.761233311863  -15.214777457173
 24       6.463437881505   -3.251710441933  -16.583699053501
 25       3.211010462749   -4.467540060143  -14.399563741496
 26       4.647270656993   -6.903752945323  -16.184517723422
 27       5.392633758715   -2.851180686120  -18.317038321335
 28       8.277429238691   -4.061417819684  -17.161638317469
 29       7.904670458123    0.581243705783  -16.463757392225
 30       5.185786244743    0.090064820765  -14.579434339635
 31      -9.753712995391    1.565899132535   14.032805313931
 32      -7.784026116775    6.009528511784   14.137547558283
 33      -9.725824471844    4.183935099153   15.240289368429
 34      -5.879740586311    5.222725686058   14.253885131382
 35      -7.805906189207    7.802129016176   15.161845186195
 36     -11.607625345315    5.023138624754   15.051298388529
 37      -9.351994227264    3.969625664491   17.271314510794
 38     -11.121440591866    0.341959282370   14.978557695992
 39      -7.896424269945    0.674559777699   14.155371833299


------------------
SYMMETRY REDUCTION
------------------
ORCA supports only abelian point groups.
It is now checked, if the determined point group is supported:
Point Group ( C1    ) is          ... supported

The point group is C1 - hence turning off symmetry
If this is a round-off problem, please increase the symmetry
        detection tolerance (%method SymThresh)

Storing the symmetry object:
Symmetry file                     ... input_77.sym.tmp
Writing symmetry information      ... done

                       ****************************
                       * Single Point Calculation *
                       ****************************

---------------------------------
CARTESIAN COORDINATES (ANGSTROEM)
---------------------------------
  V      0.689454   -0.212833    0.561190
  S      2.065200    0.979848   -1.041013
  S     -0.066554    1.950831    1.379680
  S      0.758647   -2.136543   -0.919068
  S     -1.379368   -1.148528    1.394415
  O      2.262764   -0.809934    2.263036
  C     -1.397382    1.421168    2.408835
  C     -1.922315    0.179425    2.408752
  C      2.362229   -0.294523   -2.216885
  C      1.838398   -1.536724   -2.169414
  S     -2.176194    2.618994    3.491591
  S     -3.334148   -0.086926    3.481796
  S      2.258051   -2.633610   -3.525752
  S      3.408034    0.074440   -3.628429
  C     -3.436782    1.554621    4.128382
  C      3.229320   -1.481412   -4.449156
  C     -4.382319    1.952498    5.031132
  C      3.791773   -1.767100   -5.660862
  S     -4.413296    3.602213    5.702481
  S     -5.631109    0.834654    5.635318
  S      4.759826   -0.569386   -6.556279
  S      3.561516   -3.344989   -6.456436
  C      2.656547   -2.762799   -7.962821
  C      3.680661   -0.402827   -8.051313
  C      3.420304   -1.720731   -8.775716
  H      1.699194   -2.364120   -7.619921
  H      2.459230   -3.653309   -8.564478
  H      2.853659   -1.508780   -9.692959
  H      4.380227   -2.149210   -9.081548
  H      4.182971    0.307581   -8.712245
  H      2.744200    0.047660   -7.715104
  C     -5.161443    0.828638    7.425841
  C     -4.119129    3.180106    7.481268
  C     -5.146685    2.214043    8.064814
  H     -3.111425    2.763747    7.542831
  H     -4.130708    4.128709    8.023303
  H     -6.142491    2.658130    7.964804
  H     -4.948862    2.100635    9.139586
  H     -5.885213    0.180957    7.926311
  H     -4.178608    0.356962    7.490700

----------------------------
CARTESIAN COORDINATES (A.U.)
----------------------------
  NO LB      ZA    FRAG     MASS         X           Y           Z
   0 V    23.0000    0    50.940    1.302880   -0.402196    1.060495
   1 S    16.0000    0    32.060    3.902663    1.851645   -1.967229
   2 S    16.0000    0    32.060   -0.125768    3.686536    2.607216
   3 S    16.0000    0    32.060    1.433634   -4.037481   -1.736786
   4 S    16.0000    0    32.060   -2.606627   -2.170403    2.635062
   5 O     8.0000    0    15.999    4.276004   -1.530553    4.276517
   6 C     6.0000    0    12.011   -2.640670    2.685617    4.552039
   7 C     6.0000    0    12.011   -3.632648    0.339064    4.551882
   8 C     6.0000    0    12.011    4.463966   -0.556568   -4.189306
   9 C     6.0000    0    12.011    3.474068   -2.903988   -4.099599
  10 S    16.0000    0    32.060   -4.112410    4.949182    6.598150
  11 S    16.0000    0    32.060   -6.300626   -0.164267    6.579642
  12 S    16.0000    0    32.060    4.267097   -4.976801   -6.662705
  13 S    16.0000    0    32.060    6.440251    0.140670   -6.856738
  14 C     6.0000    0    12.011   -6.494576    2.937808    7.801512
  15 C     6.0000    0    12.011    6.102531   -2.799463   -8.407687
  16 C     6.0000    0    12.011   -8.281383    3.689686    9.507461
  17 C     6.0000    0    12.011    7.165413   -3.339336  -10.697479
  18 S    16.0000    0    32.060   -8.339922    6.807196   10.776128
  19 S    16.0000    0    32.060  -10.641254    1.577267   10.649208
  20 S    16.0000    0    32.060    8.994768   -1.075984  -12.389571
  21 S    16.0000    0    32.060    6.730289   -6.321113  -12.200897
  22 C     6.0000    0    12.011    5.020147   -5.220934  -15.047552
  23 C     6.0000    0    12.011    6.955440   -0.761233  -15.214777
  24 C     6.0000    0    12.011    6.463438   -3.251710  -16.583699
  25 H     1.0000    0     1.008    3.211010   -4.467540  -14.399564
  26 H     1.0000    0     1.008    4.647271   -6.903753  -16.184518
  27 H     1.0000    0     1.008    5.392634   -2.851181  -18.317038
  28 H     1.0000    0     1.008    8.277429   -4.061418  -17.161638
  29 H     1.0000    0     1.008    7.904670    0.581244  -16.463757
  30 H     1.0000    0     1.008    5.185786    0.090065  -14.579434
  31 C     6.0000    0    12.011   -9.753713    1.565899   14.032805
  32 C     6.0000    0    12.011   -7.784026    6.009529   14.137548
  33 C     6.0000    0    12.011   -9.725824    4.183935   15.240289
  34 H     1.0000    0     1.008   -5.879741    5.222726   14.253885
  35 H     1.0000    0     1.008   -7.805906    7.802129   15.161845
  36 H     1.0000    0     1.008  -11.607625    5.023139   15.051298
  37 H     1.0000    0     1.008   -9.351994    3.969626   17.271315
  38 H     1.0000    0     1.008  -11.121441    0.341959   14.978558
  39 H     1.0000    0     1.008   -7.896424    0.674560   14.155372

--------------------------------
INTERNAL COORDINATES (ANGSTROEM)
--------------------------------
 V      0   0   0     0.000000000000     0.00000000     0.00000000
 S      1   0   0     2.425328193356     0.00000000     0.00000000
 S      1   2   0     2.433703799247    87.77557758     0.00000000
 S      1   2   3     2.428293367855    88.32167316   156.98373960
 S      1   2   3     2.418638905287   154.55894057    80.25190483
 O      1   2   3     2.393347268012   102.68227461   259.45902796
 C      3   1   2     1.763748616649    99.41881924   168.95330418
 C      7   3   1     1.348139171011   124.77606949   347.55798555
 C      2   1   3     1.759239529264   100.43381138   199.16112204
 C      9   2   1     1.348968874141   125.30783552     3.54734016
 S      7   3   1     1.792678287135   118.65780610   170.43671525
 S      8   7   3     1.793220317883   116.31687266   183.38714916
 S     10   9   2     1.794133755445   116.45867049   178.02235742
 S      9   2   1     1.795076245741   118.36346578   181.78042913
 C     12   8   7     1.767281778570    97.27822894     0.27819643
 C     13  10   9     1.767371470034    97.17807907   358.18102831
 C     15  12   8     1.366493411677   123.52751801   179.50608331
 C     16  13  10     1.366089602263   123.59762569   182.60140571
 S     17  15  12     1.781356115897   122.04992766   177.71966089
 S     17  15  12     1.781598419126   121.75974640   359.31675735
 S     18  16  13     1.781408712052   121.93617250   179.82354477
 S     18  16  13     1.782046524068   121.86753574     1.52594932
 C     22  18  16     1.851245186160    98.50989180   116.63884730
 C     21  18  16     1.851342752738    98.60548556   243.20064114
 C     24  21  18     1.526241849564   113.89331360   303.22245591
 H     23  22  18     1.092269050958   106.72608924   294.49334566
 H     23  22  18     1.092671709507   106.26204175   179.21105367
 H     25  24  21     1.098792935413   108.51888721   185.17254268
 H     25  24  21     1.094796471848   108.72161487   301.36674445
 H     24  21  18     1.092623841871   106.20043991   181.18493205
 H     24  21  18     1.092215241886   106.75690769    65.90707362
 C     20  17  15     1.851106408672    98.75573421   117.06634060
 C     19  17  15     1.851699598122    98.52042472   243.06529156
 C     32  20  17     1.525729746470   113.86575731    56.71160550
 H     33  19  17     1.092067980493   106.71757418    65.65150298
 H     33  19  17     1.092604336360   106.07907166   180.89687415
 H     34  32  20     1.094917986937   108.73771861    58.66305289
 H     34  32  20     1.098694831527   108.52353621   174.90432021
 H     32  20  17     1.092613840578   106.07606473   178.65154776
 H     32  20  17     1.092085071779   106.68982966   293.88992700

---------------------------
INTERNAL COORDINATES (A.U.)
---------------------------
 V      0   0   0     0.000000000000     0.00000000     0.00000000
 S      1   0   0     4.583206070320     0.00000000     0.00000000
 S      1   2   0     4.599033671661    87.77557758     0.00000000
 S      1   2   3     4.588809438063    88.32167316   156.98373960
 S      1   2   3     4.570565147840   154.55894057    80.25190483
 O      1   2   3     4.522770879911   102.68227461   259.45902796
 C      3   1   2     3.333001854549    99.41881924   168.95330418
 C      7   3   1     2.547613823622   124.77606949   347.55798555
 C      2   1   3     3.324480914277   100.43381138   199.16112204
 C      9   2   1     2.549181735310   125.30783552     3.54734016
 S      7   3   1     3.387671008913   118.65780610   170.43671525
 S      8   7   3     3.388695298582   116.31687266   183.38714916
 S     10   9   2     3.390421445415   116.45867049   178.02235742
 S      9   2   1     3.392202493959   118.36346578   181.78042913
 C     12   8   7     3.339678562967    97.27822894     0.27819643
 C     13  10   9     3.339848055270    97.17807907   358.18102831
 C     15  12   8     2.582298311877   123.52751801   179.50608331
 C     16  13  10     2.581535222674   123.59762569   182.60140571
 S     17  15  12     3.366275206032   122.04992766   177.71966089
 S     17  15  12     3.366733092775   121.75974640   359.31675735
 S     18  16  13     3.366374598359   121.93617250   179.82354477
 S     18  16  13     3.367579888395   121.86753574     1.52594932
 C     22  18  16     3.498346408582    98.50989180   116.63884730
 C     21  18  16     3.498530782694    98.60548556   243.20064114
 C     24  21  18     2.884179109806   113.89331360   303.22245591
 H     23  22  18     2.064089370869   106.72608924   294.49334566
 H     23  22  18     2.064850285251   106.26204175   179.21105367
 H     25  24  21     2.076417725818   108.51888721   185.17254268
 H     25  24  21     2.068865504175   108.72161487   301.36674445
 H     24  21  18     2.064759828530   106.20043991   181.18493205
 H     24  21  18     2.063987686460   106.75690769    65.90707362
 C     20  17  15     3.498084157137    98.75573421   117.06634060
 C     19  17  15     3.499205122743    98.52042472   243.06529156
 C     32  20  17     2.883211375206   113.86575731    56.71160550
 H     33  19  17     2.063709402755   106.71757418    65.65150298
 H     33  19  17     2.064722968455   106.07907166   180.89687415
 H     34  32  20     2.069095134415   108.73771861    58.66305289
 H     34  32  20     2.076232336341   108.52353621   174.90432021
 H     32  20  17     2.064740928824   106.07606473   178.65154776
 H     32  20  17     2.063741700606   106.68982966   293.88992700

---------------------
BASIS SET INFORMATION
---------------------
There are 5 groups of distinct atoms

 Group   1 Type V   : 17s11p5d1f contracted to 17s7p3d1f pattern {11111111111111111/3311111/311/1}
 Group   2 Type S   : 14s9p1d contracted to 5s4p1d pattern {73211/6111/1}
 Group   3 Type O   : 11s6p1d contracted to 5s3p1d pattern {62111/411/1}
 Group   4 Type C   : 11s6p1d contracted to 5s3p1d pattern {62111/411/1}
 Group   5 Type H   : 5s1p contracted to 3s1p pattern {311/1}

Atom   0V    basis set group =>   1
Atom   1S    basis set group =>   2
Atom   2S    basis set group =>   2
Atom   3S    basis set group =>   2
Atom   4S    basis set group =>   2
Atom   5O    basis set group =>   3
Atom   6C    basis set group =>   4
Atom   7C    basis set group =>   4
Atom   8C    basis set group =>   4
Atom   9C    basis set group =>   4
Atom  10S    basis set group =>   2
Atom  11S    basis set group =>   2
Atom  12S    basis set group =>   2
Atom  13S    basis set group =>   2
Atom  14C    basis set group =>   4
Atom  15C    basis set group =>   4
Atom  16C    basis set group =>   4
Atom  17C    basis set group =>   4
Atom  18S    basis set group =>   2
Atom  19S    basis set group =>   2
Atom  20S    basis set group =>   2
Atom  21S    basis set group =>   2
Atom  22C    basis set group =>   4
Atom  23C    basis set group =>   4
Atom  24C    basis set group =>   4
Atom  25H    basis set group =>   5
Atom  26H    basis set group =>   5
Atom  27H    basis set group =>   5
Atom  28H    basis set group =>   5
Atom  29H    basis set group =>   5
Atom  30H    basis set group =>   5
Atom  31C    basis set group =>   4
Atom  32C    basis set group =>   4
Atom  33C    basis set group =>   4
Atom  34H    basis set group =>   5
Atom  35H    basis set group =>   5
Atom  36H    basis set group =>   5
Atom  37H    basis set group =>   5
Atom  38H    basis set group =>   5
Atom  39H    basis set group =>   5

-------------------------
BASIS SET IN INPUT FORMAT
-------------------------

 # Basis set for element : H 
 NewGTO H 
 S 3 
   1      34.0613410000      0.0254393168
   2       5.1235746000      0.1900859340
   3       1.1646626000      0.8524411390
 S 1 
   1       0.3272304100      1.0000000000
 S 1 
   1       0.1030724100      1.0000000000
 P 1 
   1       0.8000000000      1.0000000000
  end;

 # Basis set for element : C 
 NewGTO C 
 S 6 
   1   13575.3496820000      0.0006064601
   2    2035.2333680000      0.0046978985
   3     463.2256235900      0.0243324735
   4     131.2001959800      0.0973999560
   5      42.8530158900      0.3019558443
   6      15.5841857700      0.6623361013
 S 2 
   1       6.2067138500      0.6559530795
   2       2.5764896500      0.3758563390
 S 1 
   1       0.5769633900      1.0000000000
 S 1 
   1       0.2297283100      1.0000000000
 S 1 
   1       0.0951644400      1.0000000000
 P 4 
   1      34.6972322400      0.0113272290
   2       7.9582622800      0.0761696612
   3       2.3780826900      0.3019225154
   4       0.8143320800      0.7278502776
 P 1 
   1       0.2888754700      1.0000000000
 P 1 
   1       0.1005682400      1.0000000000
 D 1 
   1       0.8000000000      1.0000000000
  end;

 # Basis set for element : O 
 NewGTO O 
 S 6 
   1   27032.3826310000      0.0005722654
   2    4052.3871392000      0.0044353333
   3     922.3272271000      0.0230201034
   4     261.2407098900      0.0928224938
   5      85.3546413500      0.2937849971
   6      31.0350352400      0.6740160462
 S 2 
   1      12.2608607300      0.6383993750
   2       4.9987076000      0.3953458663
 S 1 
   1       1.1703108200      1.0000000000
 S 1 
   1       0.4647474100      1.0000000000
 S 1 
   1       0.1850453600      1.0000000000
 P 4 
   1      63.2749548000      0.0120183316
   2      14.6270493800      0.0830054304
   3       4.4501223500      0.3199174388
   4       1.5275799600      0.7071554258
 P 1 
   1       0.5293511800      1.0000000000
 P 1 
   1       0.1747842100      1.0000000000
 D 1 
   1       1.2000000000      1.0000000000
  end;

 # Basis set for element : S 
 NewGTO S 
 S 7 
   1   60700.9281040000      0.0005238013
   2    9102.6106854000      0.0040506304
   3    2071.4166009000      0.0208270003
   4     586.0247682100      0.0814968475
   5     190.5539502100      0.2374911358
   6      67.6303842600      0.4472617145
   7      25.1273069100      0.3489191913
 S 3 
   1     112.5746301000      0.1004556993
   2      34.7955542200      0.4339117282
   3       6.5115556200     -1.2084330582
 S 2 
   1       3.2399032300      0.6749812922
   2       1.5477160900      0.3470879597
 S 1 
   1       0.4054103000      1.0000000000
 S 1 
   1       0.1455065100      1.0000000000
 P 6 
   1     564.3671602700      0.0025564845
   2     133.4262437900      0.0202874255
   3      42.4682711900      0.0927670112
   4      15.6165275800      0.2650208365
   5       6.1093988500      0.4486298663
   6       2.4404160200      0.3596369916
 P 1 
   1       0.8388220100      1.0000000000
 P 1 
   1       0.3128874700      1.0000000000
 P 1 
   1       0.1077010900      1.0000000000
 D 1 
   1       0.5500000000      1.0000000000
  end;

 # Basis set for element : V 
 NewGTO V 
 S 1 
   1  4239814.9912500000      1.0000000000
 S 1 
   1  1695925.9965000001      1.0000000000
 S 1 
   1  678370.3986000001      1.0000000000
 S 1 
   1  271348.1594400000      1.0000000000
 S 1 
   1   40672.0050780000      1.0000000000
 S 1 
   1    9257.0761385000      1.0000000000
 S 1 
   1    2622.7328773000      1.0000000000
 S 1 
   1     858.5948018500      1.0000000000
 S 1 
   1     314.1941865000      1.0000000000
 S 1 
   1     124.4786212700      1.0000000000
 S 1 
   1      50.4693993090      1.0000000000
 S 1 
   1      12.5138469110      1.0000000000
 S 1 
   1       5.3447758082      1.0000000000
 S 1 
   1       1.5755631295      1.0000000000
 S 1 
   1       0.6306903307      1.0000000000
 S 1 
   1       0.0879544416      1.0000000000
 S 1 
   1       0.0342969197      1.0000000000
 P 3 
   1    1450.0319327000     -0.0222847647
   2     343.7504988400     -0.1817959329
   3     110.8252170800     -0.8607412073
 P 3 
   1      41.8224645460     -0.2522537814
   2      17.0880737100     -0.4620379520
   3       7.2613218939     -0.3990010670
 P 1 
   1       2.9458145262      1.0000000000
 P 1 
   1       1.1650209680      1.0000000000
 P 1 
   1       0.4339937839      1.0000000000
 D 3 
   1      27.3603358640      0.0575501019
   2       7.4542765527      0.3023798347
   3       2.4632270217      0.7724212088
 D 1 
   1       0.8249954244      1.0000000000
 D 1 
   1       0.2526297057      1.0000000000
 P 1 
   1       0.1112480000      1.0000000000
 P 1 
   1       0.0363780000      1.0000000000
 F 1 
   1       1.8000000000      1.0000000000
  end;

---------------------------------
AUXILIARY/J BASIS SET INFORMATION
---------------------------------
There are 5 groups of distinct atoms

 Group   1 Type V   : 19s5p5d3f3g contracted to 8s5p5d2f3g pattern {121111111/11111/11111/21/111}
 Group   2 Type S   : 14s5p5d2f1g contracted to 8s4p3d1f1g pattern {71111111/2111/311/2/1}
 Group   3 Type O   : 12s5p4d2f1g contracted to 6s4p3d1f1g pattern {711111/2111/211/2/1}
 Group   4 Type C   : 12s5p4d2f1g contracted to 6s4p3d1f1g pattern {711111/2111/211/2/1}
 Group   5 Type H   : 5s2p1d contracted to 3s1p1d pattern {311/2/1}

Atom   0V    basis set group =>   1
Atom   1S    basis set group =>   2
Atom   2S    basis set group =>   2
Atom   3S    basis set group =>   2
Atom   4S    basis set group =>   2
Atom   5O    basis set group =>   3
Atom   6C    basis set group =>   4
Atom   7C    basis set group =>   4
Atom   8C    basis set group =>   4
Atom   9C    basis set group =>   4
Atom  10S    basis set group =>   2
Atom  11S    basis set group =>   2
Atom  12S    basis set group =>   2
Atom  13S    basis set group =>   2
Atom  14C    basis set group =>   4
Atom  15C    basis set group =>   4
Atom  16C    basis set group =>   4
Atom  17C    basis set group =>   4
Atom  18S    basis set group =>   2
Atom  19S    basis set group =>   2
Atom  20S    basis set group =>   2
Atom  21S    basis set group =>   2
Atom  22C    basis set group =>   4
Atom  23C    basis set group =>   4
Atom  24C    basis set group =>   4
Atom  25H    basis set group =>   5
Atom  26H    basis set group =>   5
Atom  27H    basis set group =>   5
Atom  28H    basis set group =>   5
Atom  29H    basis set group =>   5
Atom  30H    basis set group =>   5
Atom  31C    basis set group =>   4
Atom  32C    basis set group =>   4
Atom  33C    basis set group =>   4
Atom  34H    basis set group =>   5
Atom  35H    basis set group =>   5
Atom  36H    basis set group =>   5
Atom  37H    basis set group =>   5
Atom  38H    basis set group =>   5
Atom  39H    basis set group =>   5

-------------------------------------
AUXILIARY/J BASIS SET IN INPUT FORMAT
-------------------------------------

 # Auxiliary/J basis set for element : H 
 NewAuxJGTO H 
 S 3 
   1      15.6752927000      0.1007184237
   2       3.6063578000      0.3404257499
   3       1.2080016000      0.6491996172
 S 1 
   1       0.4726794000      1.0000000000
 S 1 
   1       0.2018100000      1.0000000000
 P 2 
   1       2.0281365000      0.5596620919
   2       0.5358730000      0.5596620919
 D 1 
   1       2.2165124000      1.0000000000
  end;

 # Auxiliary/J basis set for element : C 
 NewAuxJGTO C 
 S 7 
   1    1861.0916331000      0.0134602335
   2     642.9939764000      0.0299160374
   3     235.1105725000      0.1008649584
   4      90.7028894000      0.2370970548
   5      36.7794552000      0.3924037254
   6      15.6046273000      0.3195862154
   7       6.8907294000      0.0530104441
 S 1 
   1       3.1478850000     -1.0000000000
 S 1 
   1       1.4777287000      1.0000000000
 S 1 
   1       0.7076466000      1.0000000000
 S 1 
   1       0.3430122000      1.0000000000
 S 1 
   1       0.1669453000      1.0000000000
 P 2 
   1      13.5472892000     -0.6769313712
   2       5.4669419000     -0.3779500978
 P 1 
   1       2.1751721000      1.0000000000
 P 1 
   1       0.8582194000      1.0000000000
 P 1 
   1       0.3376720000      1.0000000000
 D 2 
   1       5.9287253000     -0.3533329857
   2       1.9809209000     -0.7456525731
 D 1 
   1       0.8055417000     -1.0000000000
 D 1 
   1       0.3531244000     -1.0000000000
 F 2 
   1       1.6755626000      0.6311076882
   2       0.5997536000      0.4968166032
 G 1 
   1       1.0024600000     -1.0000000000
  end;

 # Auxiliary/J basis set for element : O 
 NewAuxJGTO O 
 S 7 
   1    2876.8216605000      0.0168151159
   2    1004.7443032000      0.0340137548
   3     369.7579954000      0.1194951309
   4     142.9442404000      0.2664627624
   5      57.8366425000      0.4202764046
   6      24.3864983000      0.2765077335
   7      10.6622662000      0.0057008815
 S 1 
   1       4.8070437000     -1.0000000000
 S 1 
   1       2.2210770000      1.0000000000
 S 1 
   1       1.0447795000      1.0000000000
 S 1 
   1       0.4968425000      1.0000000000
 S 1 
   1       0.2371384000      1.0000000000
 P 2 
   1      64.2613382000     -0.2731534179
   2      16.3006076000     -0.8168011598
 P 1 
   1       4.3550542000      1.0000000000
 P 1 
   1       1.2019554000      1.0000000000
 P 1 
   1       0.3354196000      1.0000000000
 D 2 
   1       9.2146611000     -0.4661230638
   2       2.8435251000     -0.6600908911
 D 1 
   1       0.9955759000     -1.0000000000
 D 1 
   1       0.3649441000     -1.0000000000
 F 2 
   1       2.6420115000      0.5931563945
   2       0.7345613000      0.5931563945
 G 1 
   1       1.3931000000     -1.0000000000
  end;

 # Auxiliary/J basis set for element : S 
 NewAuxJGTO S 
 S 7 
   1    7399.0303145000      0.0295137551
   2    2710.1675859000      0.0559686311
   3    1034.3279062000      0.1764696370
   4     410.4645411000      0.3577969368
   5     168.9762502000      0.4299293578
   6      71.9687889000      0.1259148089
   7      31.6172683000     -0.0646025788
 S 1 
   1      14.2796836000      1.0000000000
 S 1 
   1       6.6060948000      1.0000000000
 S 1 
   1       3.1181477000      1.0000000000
 S 1 
   1       1.4954039000     -1.0000000000
 S 1 
   1       0.7254779000      1.0000000000
 S 1 
   1       0.3544216000      1.0000000000
 S 1 
   1       0.1735525000      1.0000000000
 P 2 
   1      12.6998799000      1.4059102813
   2       4.4295784000     -1.2124994202
 P 1 
   1       1.5232889000      1.0000000000
 P 1 
   1       0.5194667000     -1.0000000000
 P 1 
   1       0.1766547000     -1.0000000000
 D 3 
   1      16.8546461000      1.0295742104
   2       5.0810461000     -0.7461553923
   3       1.5102323000      0.8357028005
 D 1 
   1       0.4451331000      1.0000000000
 D 1 
   1       0.1308362000      1.0000000000
 F 2 
   1       1.0809860000      0.5572698934
   2       0.4161474000      0.5572698934
 G 1 
   1       0.6707100000     -1.0000000000
  end;

 # Auxiliary/J basis set for element : V 
 NewAuxJGTO V 
 S 12 
   1   11942.0842430000      0.0459866720
   2    2430.7110193000      0.1744615821
   3     841.0764301000      0.2900402792
   4     494.7508273000      0.1411212903
   5     291.0298903000      0.2660697186
   6     171.1940483000      0.0446365706
   7      59.2366916000     -0.0408204801
   8      34.8451117000      0.1394665381
   9      20.4971240000      0.2164746715
  10      12.0571314000      0.0864266611
  11       7.0924300000     -0.0568501658
  12       4.1720176000     -0.0126212852
 S 1 
   1       2.4541279000      1.0000000000
 S 1 
   1       1.4436046000      1.0000000000
 S 1 
   1       0.8491792000      1.0000000000
 S 1 
   1       0.2938336000      1.0000000000
 S 1 
   1       0.1728433000      1.0000000000
 S 1 
   1       0.1016725000      1.0000000000
 S 1 
   1       0.0598074000      1.0000000000
 P 1 
   1      16.7130979000     -1.0000000000
 P 1 
   1       4.7454037000     -1.0000000000
 P 1 
   1       1.3889998000      1.0000000000
 P 1 
   1       0.4142440000     -1.0000000000
 P 1 
   1       0.1243234000      1.0000000000
 D 1 
   1       7.7143225000      1.0000000000
 D 1 
   1       3.1170731000      1.0000000000
 D 1 
   1       1.2767950000     -1.0000000000
 D 1 
   1       0.5273386000      1.0000000000
 D 1 
   1       0.2184050000      1.0000000000
 F 2 
   1       3.1309344000     -1.0825667766
   2       1.0419780000      0.1809223232
 F 1 
   1       0.3559044000      1.0000000000
 G 1 
   1       8.7130110000      1.0000000000
 G 1 
   1       2.7493872000      1.0000000000
 G 1 
   1       0.8775089000      1.0000000000
  end;



           ************************************************************
           *        Program running with 6 parallel MPI-processes     *
           *              working on a common directory               *
           ************************************************************
------------------------------------------------------------------------------
                           ORCA GTO INTEGRAL CALCULATION
                           -- RI-GTO INTEGRALS CHOSEN --
------------------------------------------------------------------------------
------------------------------------------------------------------------------
                   ___                                                        
                  /   \      - P O W E R E D   B Y -                         
                 /     \                                                     
                 |  |  |   _    _      __       _____    __    __             
                 |  |  |  | |  | |    /  \     |  _  \  |  |  /  |          
                  \  \/   | |  | |   /    \    | | | |  |  | /  /          
                 / \  \   | |__| |  /  /\  \   | |_| |  |  |/  /          
                |  |  |   |  __  | /  /__\  \  |    /   |      \           
                |  |  |   | |  | | |   __   |  |    \   |  |\   \          
                \     /   | |  | | |  |  |  |  | |\  \  |  | \   \       
                 \___/    |_|  |_| |__|  |__|  |_| \__\ |__|  \__/        
                                                                              
                      - O R C A' S   B I G   F R I E N D -                    
                                      &                                       
                       - I N T E G R A L  F E E D E R -                       
                                                                              
 v1 FN, 2020, v2 2021                                                         
------------------------------------------------------------------------------


Reading SHARK input file input_77.SHARKINP.tmp ... ok
----------------------
SHARK INTEGRAL PACKAGE
----------------------

Number of atoms                             ...     40
Number of basis functions                   ...    681
Number of shells                            ...    331
Maximum angular momentum                    ...      3
Integral batch strategy                     ... SHARK/LIBINT Hybrid
RI-J (if used) integral strategy            ... SPLIT-RIJ (Revised 2003 algorithm where possible)
Printlevel                                  ...      1
Contraction scheme used                     ... SEGMENTED contraction
Coulomb Range Separation                    ... NOT USED
Exchange Range Separation                   ... NOT USED
Finite Nucleus Model                        ... NOT USED
Auxiliary Coulomb fitting basis             ... AVAILABLE
   # of basis functions in Aux-J            ...   1568
   # of shells in Aux-J                     ...    512
   Maximum angular momentum in Aux-J        ...      4
Auxiliary J/K fitting basis                 ... NOT available
Auxiliary Correlation fitting basis         ... NOT available
Auxiliary 'external' fitting basis          ... NOT available
Integral threshold                          ...     1.000000e-10
Primitive cut-off                           ...     1.000000e-11
Primitive pair pre-selection threshold      ...     1.000000e-11

Calculating pre-screening integrals         ... done (  0.1 sec) Dimension = 331
Organizing shell pair data                  ... done (  0.1 sec)
Shell pair information
Total number of shell pairs                 ...     54946
Shell pairs after pre-screening             ...     22606
Total number of primitive shell pairs       ...    221635
Primitive shell pairs kept                  ...     55220
          la=0 lb=0:   6391 shell pairs
          la=1 lb=0:   9062 shell pairs
          la=1 lb=1:   3194 shell pairs
          la=2 lb=0:   2112 shell pairs
          la=2 lb=1:   1526 shell pairs
          la=2 lb=2:    193 shell pairs
          la=3 lb=0:     60 shell pairs
          la=3 lb=1:     55 shell pairs
          la=3 lb=2:     12 shell pairs
          la=3 lb=3:      1 shell pairs

Calculating one electron integrals          ... done (  0.0 sec)
Calculating RI/J V-Matrix + Cholesky decomp.... done (  0.1 sec)
Calculating Nuclear repulsion               ... done (  0.0 sec) ENN=   5034.741741710629 Eh

SHARK setup successfully completed in   0.7 seconds

Maximum memory used throughout the entire GTOINT-calculation: 41.8 MB


           ************************************************************
           *        Program running with 6 parallel MPI-processes     *
           *              working on a common directory               *
           ************************************************************
-------------------------------------------------------------------------------
                                 ORCA SCF
-------------------------------------------------------------------------------

------------
SCF SETTINGS
------------
Hamiltonian:
 Density Functional     Method          .... DFT(GTOs)
 Exchange Functional    Exchange        .... B88
   X-Alpha parameter    XAlpha          ....  0.666667
   Becke's b parameter  XBeta           ....  0.004200
 Correlation Functional Correlation     .... LYP
 LDA part of GGA corr.  LDAOpt          .... VWN-5
 Gradients option       PostSCFGGA      .... off
 Hybrid DFT is turned on
   Fraction HF Exchange ScalHFX         ....  0.200000
   Scaling of DF-GGA-X  ScalDFX         ....  0.720000
   Scaling of DF-GGA-C  ScalDFC         ....  0.810000
   Scaling of DF-LDA-C  ScalLDAC        ....  1.000000
   Perturbative correction              ....  0.000000
   Density functional embedding theory  .... OFF
   NL short-range parameter             ....  4.800000
 RI-approximation to the Coulomb term is turned on
   Number of AuxJ basis functions       .... 1568
   RIJ-COSX (HFX calculated with COS-X)).... on


General Settings:
 Integral files         IntName         .... input_77
 Hartree-Fock type      HFTyp           .... UHF
 Total Charge           Charge          ....   -2
 Multiplicity           Mult            ....    2
 Number of Electrons    NEL             ....  321
 Basis Dimension        Dim             ....  681
 Nuclear Repulsion      ENuc            ....   5034.7417417106 Eh

Convergence Acceleration:
 DIIS                   CNVDIIS         .... on
   Start iteration      DIISMaxIt       ....    12
   Startup error        DIISStart       ....  0.200000
   # of expansion vecs  DIISMaxEq       ....     5
   Bias factor          DIISBfac        ....   1.050
   Max. coefficient     DIISMaxC        ....  10.000
 Trust-Rad. Augm. Hess. CNVTRAH         .... auto
   Auto Start mean grad. ratio tolernc. ....  1.125000
   Auto Start start iteration           ....    20
   Auto Start num. interpolation iter.  ....    10
   Max. Number of Micro iterations      ....    16
   Max. Number of Macro iterations      .... Maxiter - #DIIS iter
   Number of Davidson start vectors     ....     2
   Converg. threshold I  (grad. norm)   ....   5.000e-05
   Converg. threshold II (energy diff.) ....   1.000e-06
   Grad. Scal. Fac. for Micro threshold ....   0.100
   Minimum threshold for Micro iter.    ....   0.010
   NR start threshold (gradient norm)   ....   0.001
   Initial trust radius                 ....   0.400
   Minimum AH scaling param. (alpha)    ....   1.000
   Maximum AH scaling param. (alpha)    .... 1000.000
   Orbital update algorithm             .... Taylor
   White noise on init. David. guess    .... on
   Maximum white noise                  ....   0.010
   Quad. conv. algorithm                .... NR
 SOSCF                  CNVSOSCF        .... off
 Level Shifting         CNVShift        .... on
   Level shift para.    LevelShift      ....    0.2500
   Turn off err/grad.   ShiftErr        ....    0.0010
 Zerner damping         CNVZerner       .... off
 Static damping         CNVDamp         .... on
   Fraction old density DampFac         ....    0.7000
   Max. Damping (<1)    DampMax         ....    0.9800
   Min. Damping (>=0)   DampMin         ....    0.0000
   Turn off err/grad.   DampErr         ....    0.1000
 Fernandez-Rico         CNVRico         .... off

SCF Procedure:
 Maximum # iterations   MaxIter         ....   125
 SCF integral mode      SCFMode         .... Direct
   Integral package                     .... SHARK and LIBINT hybrid scheme
 Reset frequency        DirectResetFreq ....    20
 Integral Threshold     Thresh          ....  1.000e-10 Eh
 Primitive CutOff       TCut            ....  1.000e-11 Eh

Convergence Tolerance:
 Convergence Check Mode ConvCheckMode   .... Total+1el-Energy
 Convergence forced     ConvForced      .... 0
 Energy Change          TolE            ....  1.000e-06 Eh
 1-El. energy change                    ....  1.000e-03 Eh
 DIIS Error             TolErr          ....  1.000e-06


Diagonalization of the overlap matrix:
Smallest eigenvalue                        ... 8.445e-05
Time for diagonalization                   ...    0.248 sec
Threshold for overlap eigenvalues          ... 1.000e-08
Number of eigenvalues below threshold      ... 0
Time for construction of square roots      ...    0.157 sec
Total time needed                          ...    0.408 sec

Time for model grid setup =    0.388 sec

------------------------------
INITIAL GUESS: MODEL POTENTIAL
------------------------------
Loading Hartree-Fock densities                     ... done
Calculating cut-offs                               ... done
Initializing the effective Hamiltonian             ... done
Setting up the integral package (SHARK)            ... done
Starting the Coulomb interaction                   ... done (   0.4 sec)
Reading the grid                                   ... done
Mapping shells                                     ... done
Starting the XC term evaluation                    ... done (   0.2 sec)
  promolecular density results
     # of electrons  =    318.989249049
     EX              =   -428.190863075
     EC              =    -12.523908339
     EX+EC           =   -440.714771415
Transforming the Hamiltonian                       ... done (   0.2 sec)
Diagonalizing the Hamiltonian                      ... done (   0.2 sec)
Back transforming the eigenvectors                 ... done (   0.1 sec)
Now organizing SCF variables                       ... done
                      ------------------
                      INITIAL GUESS DONE (   1.4 sec)
                      ------------------
-------------------
DFT GRID GENERATION
-------------------

General Integration Accuracy     IntAcc      ... 4.388
Radial Grid Type                 RadialGrid  ... OptM3 with GC (2021)
Angular Grid (max. ang.)         AngularGrid ... 4 (Lebedev-302)
Angular grid pruning method      GridPruning ... 4 (adaptive)
Weight generation scheme         WeightScheme... Becke
Basis function cutoff            BFCut       ... 1.0000e-10
Integration weight cutoff        WCut        ... 1.0000e-14
Angular grids for H and He will be reduced by one unit
Partially contracted basis set               ... off
Rotationally invariant grid construction     ... off

Total number of grid points                  ...   237411
Total number of batches                      ...     3730
Average number of points per batch           ...       63
Average number of grid points per atom       ...     5935
Time for grid setup =    1.913 sec

--------------------
COSX GRID GENERATION
--------------------

GRIDX 1
-------
General Integration Accuracy     IntAcc      ... 3.816
Radial Grid Type                 RadialGrid  ... OptM3 with GC (2021)
Angular Grid (max. ang.)         AngularGrid ... 1 (Lebedev-50)
Angular grid pruning method      GridPruning ... 4 (adaptive)
Weight generation scheme         WeightScheme... Becke
Basis function cutoff            BFCut       ... 1.0000e-10
Integration weight cutoff        WCut        ... 1.0000e-14
Angular grids for H and He will be reduced by one unit
Partially contracted basis set               ... on
Rotationally invariant grid construction     ... off

Total number of grid points                  ...    29208
Total number of batches                      ...      481
Average number of points per batch           ...       60
Average number of grid points per atom       ...      730
UseSFitting                                  ... on

GRIDX 2
-------
General Integration Accuracy     IntAcc      ... 4.020
Radial Grid Type                 RadialGrid  ... OptM3 with GC (2021)
Angular Grid (max. ang.)         AngularGrid ... 2 (Lebedev-110)
Angular grid pruning method      GridPruning ... 4 (adaptive)
Weight generation scheme         WeightScheme... Becke
Basis function cutoff            BFCut       ... 1.0000e-10
Integration weight cutoff        WCut        ... 1.0000e-14
Angular grids for H and He will be reduced by one unit
Partially contracted basis set               ... on
Rotationally invariant grid construction     ... off

Total number of grid points                  ...    64107
Total number of batches                      ...     1021
Average number of points per batch           ...       62
Average number of grid points per atom       ...     1603
UseSFitting                                  ... on

GRIDX 3
-------
General Integration Accuracy     IntAcc      ... 4.338
Radial Grid Type                 RadialGrid  ... OptM3 with GC (2021)
Angular Grid (max. ang.)         AngularGrid ... 3 (Lebedev-194)
Angular grid pruning method      GridPruning ... 4 (adaptive)
Weight generation scheme         WeightScheme... Becke
Basis function cutoff            BFCut       ... 1.0000e-10
Integration weight cutoff        WCut        ... 1.0000e-14
Angular grids for H and He will be reduced by one unit
Partially contracted basis set               ... on
Rotationally invariant grid construction     ... off

Total number of grid points                  ...   147321
Total number of batches                      ...     2325
Average number of points per batch           ...       63
Average number of grid points per atom       ...     3683
UseSFitting                                  ... on

Time for X-Grid setup             =    2.148 sec

--------------
SCF ITERATIONS
--------------
ITER       Energy         Delta-E        Max-DP      RMS-DP      [F,P]     Damp
               ***  Starting incremental Fock matrix formation  ***
  0  -6336.4485875215   0.000000000000 0.07655755  0.00074308  0.3150561 0.7000
  1  -6336.4652906847  -0.016703163214 0.91455123  0.00336847  0.1795127 0.7000
                               ***Turning on DIIS***
  2  -6336.9942813621  -0.528990677428 0.59101500  0.00218849  0.1056003 0.7000
  3  -6336.9676820612   0.026599300965 1.25653205  0.00478943  0.0868526 0.0000
  4  -6336.7477711819   0.219910879321 0.03599484  0.00016163  0.1423323 0.7000
  5  -6336.8605941319  -0.112822950072 0.09142302  0.00037734  0.1336994 0.7000
  6  -6336.9987099347  -0.138115802782 0.23868567  0.00090784  0.1191543 0.7000
  7  -6337.1298545318  -0.131144597056 0.48292861  0.00176221  0.1021007 0.7000
  8  -6337.3335415255  -0.203686993706 1.59731320  0.00585245  0.0537671 0.0000
  9  -6337.4250241318  -0.091482606302 0.18605343  0.00081906  0.0674226 0.0000
 10  -6337.3972561694   0.027767962361 0.07354253  0.00040648  0.0919772 0.0000
 11  -6337.3605681760   0.036687993368 0.00831785  0.00006382  0.1104582 0.7000
 12  -6337.3563235145   0.004244661493 0.00895238  0.00008024  0.1124170 0.7000
 13  -6337.3588074928  -0.002483978218 0.06569127  0.00035385  0.1118971 0.7000
 14  -6337.4516989158  -0.092891422984 0.09342630  0.00060396  0.0824071 0.0000
 15  -6337.3182857369   0.133413178892 0.01181113  0.00010453  0.1655821 0.7000
 16  -6337.3816277898  -0.063342052938 0.01302134  0.00011781  0.1373094 0.7000
 17  -6337.4434885766  -0.061860786808 0.01134456  0.00010259  0.1058937 0.7000
 18  -6337.4864375361  -0.042948959491 0.03046932  0.00026848  0.0777936 0.0000
 19  -6337.5407497168  -0.054312180735 0.00722971  0.00007571  0.0050850 0.0000
               *** Restarting incremental Fock matrix formation ***
                                   *** Resetting DIIS ***
 20  -6337.5430886491  -0.002338932302 0.01250611  0.00009270  0.0153847 0.0000
 21  -6337.5413289018   0.001759747322 0.00728536  0.00004357  0.0260868 0.0000
 22  -6337.5458253535  -0.004496451682 0.00558727  0.00003429  0.0122689 0.0000
 23  -6337.5477831579  -0.001957804370 0.00490219  0.00003065  0.0044866 0.0000
 24  -6337.5491152989  -0.001332141040 0.00402740  0.00002603  0.0061587 0.0000
 25  -6337.5501342187  -0.001018919811 0.00526184  0.00003456  0.0087451 0.0000
 26  -6337.5517001299  -0.001565911152 0.00482061  0.00003430  0.0094452 0.0000
 27  -6337.5532254304  -0.001525300527 0.00350751  0.00002461  0.0087949 0.0000

 WARNING: the maximum gradient error descreased on average only by a factor   1.0
          during the last 20 iterations

                      *** Initiating the TRAH-SCF procedure ***


TRAH GRIDX
----------

General Integration Accuracy     IntAcc      ... 3.067
Radial Grid Type                 RadialGrid  ... OptM3 with GC (2021)
Angular Grid (max. ang.)         AngularGrid ... 1 (Lebedev-50)
Angular grid pruning method      GridPruning ... 4 (adaptive)
Weight generation scheme         WeightScheme... Becke
Basis function cutoff            BFCut       ... 1.0000e-10
Integration weight cutoff        WCut        ... 1.0000e-14
Angular grids for H and He will be reduced by one unit
Partially contracted basis set               ... on
Rotationally invariant grid construction     ... off

Total number of grid points                  ...    17773
Total number of batches                      ...      303
Average number of points per batch           ...       58
Average number of grid points per atom       ...      444


TRAH GRID
---------

General Integration Accuracy     IntAcc      ... 3.467
Radial Grid Type                 RadialGrid  ... OptM3 with GC (2021)
Angular Grid (max. ang.)         AngularGrid ... 1 (Lebedev-50)
Angular grid pruning method      GridPruning ... 4 (adaptive)
Weight generation scheme         WeightScheme... Becke
Basis function cutoff            BFCut       ... 1.0000e-10
Integration weight cutoff        WCut        ... 1.0000e-14
Angular grids for H and He will be reduced by one unit
Partially contracted basis set               ... off
Rotationally invariant grid construction     ... off

Total number of grid points                  ...    39395
Total number of batches                      ...      635
Average number of points per batch           ...       62
Average number of grid points per atom       ...      985

 --------------------------------------------------------------------------------------------
   Iter.        energy            ||Error||_2        Shift      TRadius  Mac/Mic        Rej.
 --------------------------------------------------------------------------------------------
    0      -6337.553343727254     3.641557e-02                     0.400 (TRAH MAcro)   No
    0     dE    -3.142535e-07     1.966451e+00    -3.2391e-07      0.000 (TRAH MIcro)
    0     dE    -6.770330e-04     7.219100e-02    -6.7663e-04      0.024 (TRAH MIcro)
    0     dE    -1.191084e-02     6.909360e-02    -3.0256e-02      0.400 (TRAH MIcro)
    0     dE    -1.268394e-02     7.528105e-02    -3.6142e-02      0.400 (TRAH MIcro)
    0     dE    -1.202991e-02     1.067190e-01    -5.0228e-02      0.353 (TRAH MIcro)
    0     dE    -1.255600e-02     3.167877e-02    -5.0565e-02      0.365 (TRAH MIcro)
    0     dE    -1.307444e-02     1.047277e-01    -5.0781e-02      0.378 (TRAH MIcro)
    0     dE    -1.332684e-02     2.594959e-02    -5.0851e-02      0.384 (TRAH MIcro)
    0     dE    -1.343681e-02     2.652307e-02    -5.0877e-02      0.386 (TRAH MIcro)
    0     dE    -1.347054e-02     1.955566e-02    -5.0887e-02      0.387 (TRAH MIcro)
    0     dE    -1.346888e-02     8.715419e-04    -5.0891e-02      0.387 (TRAH MIcro)
    1      -6337.565660215036     3.159513e-02                     0.480 (TRAH MAcro)   No
    1     dE    -4.063737e-07     2.406738e+00    -4.1886e-07      0.000 (TRAH MIcro)
    1     dE    -1.099355e-03     1.034372e+00    -1.0972e-03      0.045 (TRAH MIcro)
    1     dE    -1.413982e-02     3.221310e-01    -2.9821e-02      0.467 (TRAH MIcro)
    1     dE    -1.621102e-02     5.731551e-02    -3.6707e-02      0.480 (TRAH MIcro)
    1     dE    -1.721957e-02     3.258331e-02    -4.1888e-02      0.480 (TRAH MIcro)
    1     dE    -1.735992e-02     2.230188e-02    -4.2784e-02      0.480 (TRAH MIcro)
    1     dE    -1.740946e-02     4.989494e-03    -4.3160e-02      0.480 (TRAH MIcro)
    1     dE    -1.742108e-02     1.948187e-02    -4.3258e-02      0.480 (TRAH MIcro)
    1     dE    -1.742354e-02     2.142754e-03    -4.3282e-02      0.480 (TRAH MIcro)
    2      -6337.575968147717     4.434087e-02                     0.480 (TRAH MAcro)   No
    2     dE    -6.594819e-08     9.762780e-01    -5.7437e-07      0.000 (TRAH MIcro)
    2     dE    -7.808368e-04     9.295791e-02    -7.8032e-04      0.026 (TRAH MIcro)
    2     dE    -9.815969e-04     1.786253e-02    -9.8047e-04      0.034 (TRAH MIcro)
    2     dE    -1.142254e-03     9.497788e-03    -1.1391e-03      0.052 (TRAH MIcro)
    2     dE    -1.167691e-03     5.996325e-03    -1.1635e-03      0.060 (TRAH MIcro)
    2     dE    -1.176923e-03     6.143729e-03    -1.1721e-03      0.064 (TRAH MIcro)
    2     dE    -1.178554e-03     1.782434e-03    -1.1737e-03      0.064 (TRAH MIcro)
    3      -6337.577135557112     2.163238e-03                     0.576 (TRAH MAcro)   No
    3     dE    -1.480266e-12     3.711033e-03    -1.4803e-06      0.000 (TRAH MIcro)
    3     dE    -5.191933e-06     2.151008e-03    -5.1918e-06      0.005 (TRAH MIcro)
    3     dE    -8.982295e-06     1.137588e-03    -8.9815e-06      0.009 (TRAH MIcro)
    3     dE    -9.854437e-06     5.378631e-04    -9.8533e-06      0.011 (TRAH MIcro)
    3     dE    -1.030466e-05     6.144011e-04    -1.0303e-05      0.012 (TRAH MIcro)
    3     dE    -1.070172e-05     4.126946e-04    -1.0700e-05      0.013 (TRAH MIcro)
    3     dE    -1.117883e-05     6.821367e-04    -1.1176e-05      0.015 (TRAH MIcro)
    3     dE    -1.182022e-05     6.405579e-04    -1.1816e-05      0.019 (TRAH MIcro)
    3     dE    -1.230119e-05     6.097576e-04    -1.2295e-05      0.022 (TRAH MIcro)
    3     dE    -1.288873e-05     6.188827e-04    -1.2879e-05      0.027 (TRAH MIcro)
    3     dE    -1.317334e-05     4.984077e-04    -1.3162e-05      0.030 (TRAH MIcro)
    3     dE    -1.337486e-05     3.377534e-04    -1.3361e-05      0.032 (TRAH MIcro)
    3     dE    -1.347772e-05     2.321182e-04    -1.3463e-05      0.033 (TRAH MIcro)
    3     dE    -1.353397e-05     1.770437e-04    -1.3519e-05      0.033 (TRAH MIcro)
    4      -6337.577149836614     1.944244e-04                           (NR   MAcro)
    4     dE    -2.070790e-08     1.465405e-04                           (NR   MIcro)
    4     dE    -3.595146e-08     1.154648e-04                           (NR   MIcro)
    4     dE    -6.080095e-08     1.446953e-04                           (NR   MIcro)
    4     dE    -8.175594e-08     1.257718e-04                           (NR   MIcro)
    4     dE    -1.027697e-07     1.251152e-04                           (NR   MIcro)
    4     dE    -1.178230e-07     9.400963e-05                           (NR   MIcro)
    4     dE    -1.335175e-07     1.307885e-04                           (NR   MIcro)
    4     dE    -1.498286e-07     1.179906e-04                           (NR   MIcro)
    4     dE    -1.617502e-07     8.839145e-05                           (NR   MIcro)
    4     dE    -1.717064e-07     8.257506e-05                           (NR   MIcro)
    4     dE    -1.788837e-07     7.339282e-05                           (NR   MIcro)
    4     dE    -1.839620e-07     6.328513e-05                           (NR   MIcro)
    4     dE    -1.870669e-07     3.497062e-05                           (NR   MIcro)
    4     dE    -1.879848e-07     1.949072e-05                           (NR   MIcro)
    4     dE    -1.884232e-07     1.794857e-05                           (NR   MIcro)
    5      -6337.577150070988     1.856779e-05                           (NR   MAcro)

               *****************************************************
               *                     SUCCESS                       *
               *           SCF CONVERGED AFTER  90 CYCLES          *
               *****************************************************

Old exchange energy                            =    -85.940771596 Eh
New exchange energy                            =    -85.940771493 Eh
Exchange energy change after final integration =      0.000000103 Eh
Total energy after final integration           =  -6337.577149968 Eh
Final COS-X integration done in                =    27.835 sec

----------------
TOTAL SCF ENERGY
----------------

Total Energy       :        -6337.57714997 Eh         -172454.24165 eV

Components:
Nuclear Repulsion  :         5034.74174171 Eh          137002.28785 eV
Electronic Energy  :       -11372.31889168 Eh         -309456.52951 eV
One Electron Energy:       -18839.32861663 Eh         -512644.19399 eV
Two Electron Energy:         7467.00972495 Eh          203187.66448 eV
Max COSX asymmetry :            0.00000255 Eh               0.00007 eV

Virial components:
Potential Energy   :       -12658.57021726 Eh         -344457.20748 eV
Kinetic Energy     :         6320.99306729 Eh          172002.96582 eV
Virial Ratio       :            2.00262365


DFT components:
N(Alpha)           :      160.999966484993 electrons
N(Beta)            :      159.999970409922 electrons
N(Total)           :      320.999936894915 electrons
E(X)               :     -341.447352414678 Eh       
E(C)               :      -14.695759448032 Eh       
E(XC)              :     -356.143111862710 Eh       
DFET-embed. en.    :        0.000000000000 Eh       

---------------
SCF CONVERGENCE
---------------

  Last Energy change         ...   -2.3437e-07  Tolerance :   1.0000e-06
  Last Orbital Gradient      ...    1.8568e-05  Tolerance :   5.0000e-05
  Last Orbital Rotation      ...    6.1790e-03

             **** THE GBW FILE WAS UPDATED (input_77.gbw) ****
             **** DENSITY input_77.scfp WAS UPDATED ****
             **** ENERGY FILE WAS UPDATED (input_77.en.tmp) ****
----------------------
UHF SPIN CONTAMINATION
----------------------

Warning: in a DFT calculation there is little theoretical justification to 
         calculate <S**2> as in Hartree-Fock theory. We will do it anyways
         but you should keep in mind that the values have only limited relevance

Expectation value of <S**2>     :     1.796637
Ideal value S*(S+1) for S=0.5   :     0.750000
Deviation                       :     1.046637

             **** THE GBW FILE WAS UPDATED (input_77.gbw) ****
             **** DENSITY input_77.scfp WAS UPDATED ****
----------------
ORBITAL ENERGIES
----------------
                 SPIN UP ORBITALS
  NO   OCC          E(Eh)            E(eV) 
   0   1.0000    -196.662888     -5351.4692 
   1   1.0000     -88.735608     -2414.6186 
   2   1.0000     -88.735496     -2414.6156 
   3   1.0000     -88.735090     -2414.6046 
   4   1.0000     -88.735061     -2414.6038 
   5   1.0000     -88.734033     -2414.5758 
   6   1.0000     -88.734022     -2414.5755 
   7   1.0000     -88.733963     -2414.5739 
   8   1.0000     -88.733593     -2414.5638 
   9   1.0000     -88.648594     -2412.2509 
  10   1.0000     -88.648584     -2412.2506 
  11   1.0000     -88.647543     -2412.2223 
  12   1.0000     -88.647082     -2412.2097 
  13   1.0000     -22.031902      -599.5185 
  14   1.0000     -18.848477      -512.8931 
  15   1.0000     -18.536667      -504.4084 
  16   1.0000     -18.535391      -504.3736 
  17   1.0000     -18.530440      -504.2389 
  18   1.0000     -10.079444      -274.2756 
  19   1.0000     -10.078963      -274.2625 
  20   1.0000     -10.065477      -273.8955 
  21   1.0000     -10.065452      -273.8949 
  22   1.0000     -10.064920      -273.8804 
  23   1.0000     -10.064855      -273.8786 
  24   1.0000     -10.052874      -273.5526 
  25   1.0000     -10.052389      -273.5394 
  26   1.0000     -10.051850      -273.5247 
  27   1.0000     -10.051263      -273.5088 
  28   1.0000     -10.024733      -272.7868 
  29   1.0000     -10.024525      -272.7812 
  30   1.0000     -10.023958      -272.7658 
  31   1.0000     -10.023579      -272.7555 
  32   1.0000      -7.789104      -211.9523 
  33   1.0000      -7.789007      -211.9496 
  34   1.0000      -7.788587      -211.9382 
  35   1.0000      -7.788573      -211.9379 
  36   1.0000      -7.787341      -211.9043 
  37   1.0000      -7.787323      -211.9038 
  38   1.0000      -7.787246      -211.9017 
  39   1.0000      -7.786911      -211.8926 
  40   1.0000      -7.703035      -209.6102 
  41   1.0000      -7.702932      -209.6074 
  42   1.0000      -7.701961      -209.5810 
  43   1.0000      -7.701322      -209.5636 
  44   1.0000      -5.754104      -156.5771 
  45   1.0000      -5.753998      -156.5743 
  46   1.0000      -5.753579      -156.5629 
  47   1.0000      -5.753557      -156.5622 
  48   1.0000      -5.752283      -156.5276 
  49   1.0000      -5.752278      -156.5274 
  50   1.0000      -5.752199      -156.5253 
  51   1.0000      -5.751857      -156.5160 
  52   1.0000      -5.750670      -156.4837 
  53   1.0000      -5.750584      -156.4813 
  54   1.0000      -5.750161      -156.4698 
  55   1.0000      -5.750154      -156.4696 
  56   1.0000      -5.747863      -156.4073 
  57   1.0000      -5.747855      -156.4071 
  58   1.0000      -5.747769      -156.4047 
  59   1.0000      -5.747433      -156.3956 
  60   1.0000      -5.743879      -156.2989 
  61   1.0000      -5.743779      -156.2962 
  62   1.0000      -5.743367      -156.2849 
  63   1.0000      -5.743353      -156.2846 
  64   1.0000      -5.743135      -156.2786 
  65   1.0000      -5.743116      -156.2781 
  66   1.0000      -5.743040      -156.2761 
  67   1.0000      -5.742705      -156.2669 
  68   1.0000      -5.668239      -154.2406 
  69   1.0000      -5.668161      -154.2385 
  70   1.0000      -5.667198      -154.2123 
  71   1.0000      -5.666612      -154.1963 
  72   1.0000      -5.661127      -154.0471 
  73   1.0000      -5.661117      -154.0468 
  74   1.0000      -5.660779      -154.0376 
  75   1.0000      -5.660634      -154.0337 
  76   1.0000      -5.660154      -154.0206 
  77   1.0000      -5.659647      -154.0068 
  78   1.0000      -5.659441      -154.0012 
  79   1.0000      -5.659056      -153.9907 
  80   1.0000      -2.445269       -66.5391 
  81   1.0000      -1.477815       -40.2134 
  82   1.0000      -1.476923       -40.1891 
  83   1.0000      -1.476880       -40.1880 
  84   1.0000      -0.713318       -19.4104 
  85   1.0000      -0.712895       -19.3989 
  86   1.0000      -0.689531       -18.7631 
  87   1.0000      -0.689247       -18.7554 
  88   1.0000      -0.635491       -17.2926 
  89   1.0000      -0.635058       -17.2808 
  90   1.0000      -0.620076       -16.8731 
  91   1.0000      -0.619589       -16.8599 
  92   1.0000      -0.579426       -15.7670 
  93   1.0000      -0.579111       -15.7584 
  94   1.0000      -0.578074       -15.7302 
  95   1.0000      -0.576837       -15.6965 
  96   1.0000      -0.542139       -14.7523 
  97   1.0000      -0.501262       -13.6400 
  98   1.0000      -0.500137       -13.6094 
  99   1.0000      -0.499291       -13.5864 
 100   1.0000      -0.498969       -13.5776 
 101   1.0000      -0.485104       -13.2004 
 102   1.0000      -0.483083       -13.1454 
 103   1.0000      -0.451049       -12.2737 
 104   1.0000      -0.448381       -12.2011 
 105   1.0000      -0.421524       -11.4703 
 106   1.0000      -0.416287       -11.3277 
 107   1.0000      -0.357589        -9.7305 
 108   1.0000      -0.357191        -9.7197 
 109   1.0000      -0.330580        -8.9955 
 110   1.0000      -0.330071        -8.9817 
 111   1.0000      -0.323951        -8.8152 
 112   1.0000      -0.319688        -8.6992 
 113   1.0000      -0.307529        -8.3683 
 114   1.0000      -0.306518        -8.3408 
 115   1.0000      -0.295085        -8.0297 
 116   1.0000      -0.294707        -8.0194 
 117   1.0000      -0.261809        -7.1242 
 118   1.0000      -0.261385        -7.1127 
 119   1.0000      -0.259558        -7.0629 
 120   1.0000      -0.259157        -7.0520 
 121   1.0000      -0.237019        -6.4496 
 122   1.0000      -0.236183        -6.4269 
 123   1.0000      -0.235435        -6.4065 
 124   1.0000      -0.234029        -6.3682 
 125   1.0000      -0.223950        -6.0940 
 126   1.0000      -0.221460        -6.0262 
 127   1.0000      -0.216670        -5.8959 
 128   1.0000      -0.215586        -5.8664 
 129   1.0000      -0.199610        -5.4317 
 130   1.0000      -0.190280        -5.1778 
 131   1.0000      -0.188916        -5.1407 
 132   1.0000      -0.187959        -5.1146 
 133   1.0000      -0.182348        -4.9620 
 134   1.0000      -0.165745        -4.5102 
 135   1.0000      -0.154829        -4.2131 
 136   1.0000      -0.149716        -4.0740 
 137   1.0000      -0.137945        -3.7537 
 138   1.0000      -0.137452        -3.7403 
 139   1.0000      -0.137290        -3.7358 
 140   1.0000      -0.127091        -3.4583 
 141   1.0000      -0.104914        -2.8549 
 142   1.0000      -0.103725        -2.8225 
 143   1.0000      -0.100787        -2.7425 
 144   1.0000      -0.099966        -2.7202 
 145   1.0000      -0.085948        -2.3388 
 146   1.0000      -0.070062        -1.9065 
 147   1.0000      -0.069899        -1.9021 
 148   1.0000      -0.064000        -1.7415 
 149   1.0000      -0.063938        -1.7398 
 150   1.0000      -0.052554        -1.4301 
 151   1.0000      -0.042527        -1.1572 
 152   1.0000      -0.038875        -1.0579 
 153   1.0000      -0.038192        -1.0393 
 154   1.0000      -0.026506        -0.7213 
 155   1.0000      -0.023690        -0.6446 
 156   1.0000      -0.010612        -0.2888 
 157   1.0000       0.000659         0.0179 
 158   1.0000       0.011043         0.3005 
 159   1.0000       0.013984         0.3805 
 160   1.0000       0.032223         0.8768 
 161   0.0000       0.128514         3.4970 
 162   0.0000       0.134610         3.6629 
 163   0.0000       0.134772         3.6673 
 164   0.0000       0.140048         3.8109 
 165   0.0000       0.143761         3.9119 
 166   0.0000       0.159677         4.3450 
 167   0.0000       0.160182         4.3588 
 168   0.0000       0.170550         4.6409 
 169   0.0000       0.170778         4.6471 
 170   0.0000       0.172849         4.7035 
 171   0.0000       0.174616         4.7515 
 172   0.0000       0.174861         4.7582 
 173   0.0000       0.187116         5.0917 
 174   0.0000       0.187782         5.1098 
 175   0.0000       0.195376         5.3164 
 176   0.0000       0.197886         5.3848 
 177   0.0000       0.198625         5.4049 
 178   0.0000       0.206485         5.6188 
 179   0.0000       0.211457         5.7540 
 180   0.0000       0.211846         5.7646 
 181   0.0000       0.212092         5.7713 
 182   0.0000       0.213629         5.8131 
 183   0.0000       0.216282         5.8853 
 184   0.0000       0.221951         6.0396 
 185   0.0000       0.227265         6.1842 
 186   0.0000       0.228068         6.2060 
 187   0.0000       0.232348         6.3225 
 188   0.0000       0.235124         6.3980 
 189   0.0000       0.237951         6.4750 
 190   0.0000       0.242498         6.5987 
 191   0.0000       0.244190         6.6447 
 192   0.0000       0.246403         6.7050 
 193   0.0000       0.257482         7.0065 
 194   0.0000       0.257915         7.0182 
 195   0.0000       0.265265         7.2182 
 196   0.0000       0.268487         7.3059 
 197   0.0000       0.273560         7.4440 
 198   0.0000       0.275981         7.5098 
 199   0.0000       0.280599         7.6355 
 200   0.0000       0.285399         7.7661 
 201   0.0000       0.286823         7.8049 
 202   0.0000       0.298812         8.1311 
 203   0.0000       0.302063         8.2196 
 204   0.0000       0.307675         8.3723 
 205   0.0000       0.321154         8.7390 
 206   0.0000       0.331888         9.0311 
 207   0.0000       0.332434         9.0460 
 208   0.0000       0.334953         9.1145 
 209   0.0000       0.337636         9.1875 
 210   0.0000       0.347374         9.4525 
 211   0.0000       0.348174         9.4743 
 212   0.0000       0.349690         9.5155 
 213   0.0000       0.355672         9.6783 
 214   0.0000       0.357688         9.7332 
 215   0.0000       0.365174         9.9369 
 216   0.0000       0.368635        10.0311 
 217   0.0000       0.373975        10.1764 
 218   0.0000       0.380434        10.3521 
 219   0.0000       0.381312        10.3760 
 220   0.0000       0.388182        10.5630 
 221   0.0000       0.388737        10.5781 
 222   0.0000       0.390546        10.6273 
 223   0.0000       0.393158        10.6984 
 224   0.0000       0.397260        10.8100 
 225   0.0000       0.397890        10.8271 
 226   0.0000       0.398249        10.8369 
 227   0.0000       0.403399        10.9771 
 228   0.0000       0.407144        11.0790 
 229   0.0000       0.415019        11.2932 
 230   0.0000       0.417418        11.3585 
 231   0.0000       0.419117        11.4048 
 232   0.0000       0.420622        11.4457 
 233   0.0000       0.425717        11.5844 
 234   0.0000       0.431185        11.7332 
 235   0.0000       0.432985        11.7821 
 236   0.0000       0.436566        11.8796 
 237   0.0000       0.451580        12.2881 
 238   0.0000       0.453579        12.3425 
 239   0.0000       0.461128        12.5479 
 240   0.0000       0.464237        12.6325 
 241   0.0000       0.469049        12.7635 
 242   0.0000       0.470083        12.7916 
[...]
     CP-SCF ITERATION   0:   4.0414e-02 (   6.1 sec   0/  3 done)
     CP-SCF ITERATION   1:   1.6207e-03 (   6.2 sec   0/  3 done)
     CP-SCF ITERATION   2:   5.6213e-04 (   6.3 sec   3/  3 done)
                    *** THE CP-SCF HAS CONVERGED ***

Forming final perturbed densities           ... done
Transforming perturbed density to AO basis  ... done

 Raw HFC matrix (all values in MHz): 
 -----------------------------------
                -0.0268               0.0056              -0.1296
                 0.0061              -0.0834               0.0028
                -0.1309               0.0033               0.1135

 A(FC)           0.0016               0.0016               0.0016
 A(SD)          -0.0852              -0.1100               0.1952
 A(ORB+DIA)      0.0020               0.0019              -0.0056    A(PC) =  -0.0006
 A(ORB)          0.0021               0.0019              -0.0056    A(PC) =  -0.0006
 A(DIA)         -0.0000              -0.0000               0.0000    A(PC) =  -0.0000
             ----------           ----------           ----------
 A(Tot)         -0.0815              -0.1065               0.1912    A(iso)=    0.0011
 Orientation: 
  X          -0.2352162            0.8262857           -0.5117864
  Y          -0.9613703           -0.2752466           -0.0025450
  Z          -0.1429704            0.4914176            0.8591090

Notes:  (1) The A matrix conforms to the "SAI" spin Hamiltonian convention.
        (2) Tensor is right-handed.

 Raw EFG matrix (all values in a.u.**-3):
 -----------------------------------
             0.0457       0.1749      -0.1324
             0.1749       0.0046      -0.1157
            -0.1324      -0.1157      -0.0503

 V(El)       0.5529       0.8186      -1.3715
 V(Nuc)     -0.6935      -0.9697       1.6631
         ----------   ----------   ----------
 V(Tot)     -0.1405      -0.1511       0.2917 
 Orientation: 
  X       0.2534927    0.7020038    0.6655314
  Y       0.3975755   -0.7028165    0.5899006
  Z       0.8818589    0.1150635   -0.4572584

Note: Tensor is right-handed


 Quadrupole tensor eigenvalues (in MHz;Q= 0.0029 I=  1.0)
  e**2qQ            =     0.195845 MHz 
  e**2qQ/(4I*(2I-1))=     0.048961 MHz 
  eta               =     0.036368
  NOTE: the diagonal representation of the SH term I*Q*I = e**2qQ/(4I(2I-1))*[-(1-eta),-(1+eta),2]

 RHO(0)=      0.443578508 a.u.**-3

 -----------------------------------------------------------
 Nucleus  39H : A:ISTP=    1 I=  0.5 P=533.5514 MHz/au**3
                Q:ISTP=    2 I=  1.0 Q=  0.0029 barn     
 -----------------------------------------------------------
 Solving for nuclear perturbation:
Forming RHS of the CP-SCF equations         ... 
Calc. nucleus orbit integrals (SHARK)       ... done

------------------------------------------------------------------------------
                           ORCA CP-SCF CALCULATION
------------------------------------------------------------------------------

Input orbitals are from        ... input_77.gbw
Input Perturbation             ... input_77.pin.tmp
Wavefunction output            ... input_77.pout.tmp
Perturbation mode              ... Imaginary perturbation
Solver                         ... POPLE
Max. number of iterations      ... 64
Convergence tolerance          ... 1.000e-03
Integral handling              ... Direct
DFT GridXC                     ... 1
COSX GridX                     ... 1
COSX IntAccX                   ... 3.067
COSX Algorithm                 ... Auto
Number of perturbations        ... 3
Number of operators            ... 2
Orbital ranges used for CP-SCF:
 Operator 0:  Orbitals   0...160  to 161...680
 Operator 1:  Orbitals   0...159  to 160...680
Variables per perturbation     ... 167080
DFT calculation                         ... on
XC functional terms                     ... off
Hybrid DFT                              ... on
   Exchange mixing (SCF)                ...  0.200
   Exchange mixing (CP-SCF)             ...  0.200
   GGA exch. scaling(SCF)               ...  0.720
   GGA exch. scaling (CP-SCF)           ...  0.720
   GGA corr. scaling (SCF)              ...  0.810
   GGA corr. scaling (CP-SCF)           ...  0.810

CP-SCF GRID
-----------

General Integration Accuracy     IntAcc      ... 3.467
Radial Grid Type                 RadialGrid  ... OptM3 with GC (2021)
Angular Grid (max. ang.)         AngularGrid ... 1 (Lebedev-50)
Angular grid pruning method      GridPruning ... 4 (adaptive)
Weight generation scheme         WeightScheme... Becke
Basis function cutoff            BFCut       ... 1.0000e-10
Integration weight cutoff        WCut        ... 1.0000e-14
Angular grids for H and He will be reduced by one unit
Partially contracted basis set               ... off
Rotationally invariant grid construction     ... off

Total number of grid points                  ...    39395
Total number of batches                      ...      635
Average number of points per batch           ...       62
Average number of grid points per atom       ...      985

CP-SCF GRIDX
------------

General Integration Accuracy     IntAcc      ... 3.067
Radial Grid Type                 RadialGrid  ... OptM3 with GC (2021)
Angular Grid (max. ang.)         AngularGrid ... 1 (Lebedev-50)
Angular grid pruning method      GridPruning ... 4 (adaptive)
Weight generation scheme         WeightScheme... Becke
Basis function cutoff            BFCut       ... 1.0000e-10
Integration weight cutoff        WCut        ... 1.0000e-14
Angular grids for H and He will be reduced by one unit
Partially contracted basis set               ... on
Rotationally invariant grid construction     ... off

Total number of grid points                  ...    17773
Total number of batches                      ...      303
Average number of points per batch           ...       58
Average number of grid points per atom       ...      444

Memory available               ... 810.3 MB
Memory needed per perturbation ...  48.1 MB
Perturbations treated per batch... 3
Number of batches              ... 1
     CP-SCF ITERATION   0:   4.5238e-02 (   6.1 sec   0/  3 done)
     CP-SCF ITERATION   1:   1.6354e-03 (   6.3 sec   0/  3 done)
     CP-SCF ITERATION   2:   9.9496e-04 (   6.3 sec   3/  3 done)
                    *** THE CP-SCF HAS CONVERGED ***

Forming final perturbed densities           ... done
Transforming perturbed density to AO basis  ... done

 Raw HFC matrix (all values in MHz): 
 -----------------------------------
                -0.1136               0.0167              -0.1711
                 0.0171              -0.1305               0.0069
                -0.1745               0.0079               0.2438

 A(FC)           0.0008               0.0008               0.0008
 A(SD)          -0.1288              -0.1932               0.3221
 A(ORB+DIA)      0.0033               0.0032              -0.0092    A(PC) =  -0.0009
 A(ORB)          0.0034               0.0032              -0.0092    A(PC) =  -0.0009
 A(DIA)         -0.0001              -0.0000               0.0000    A(PC) =  -0.0000
             ----------           ----------           ----------
 A(Tot)         -0.1247              -0.1892               0.3137    A(iso)=   -0.0001
 Orientation: 
  X          -0.2780014            0.8853494           -0.3726548
  Y          -0.9541204           -0.2994230            0.0004103
  Z          -0.1112181            0.3556716            0.9279699

Notes:  (1) The A matrix conforms to the "SAI" spin Hamiltonian convention.
        (2) Tensor is right-handed.

 Raw EFG matrix (all values in a.u.**-3):
 -----------------------------------
             0.2052      -0.1673       0.0252
            -0.1673      -0.0631      -0.0103
             0.0252      -0.0103      -0.1422

 V(El)       0.6360       0.4469      -1.0829
 V(Nuc)     -0.7780      -0.5921       1.3701
         ----------   ----------   ----------
 V(Tot)     -0.1420      -0.1453       0.2872 
 Orientation: 
  X      -0.2915302    0.3244424    0.8998596
  Y      -0.7028527    0.5654539   -0.4315785
  Z      -0.6488515   -0.7582869    0.0631883

Note: Tensor is right-handed


 Quadrupole tensor eigenvalues (in MHz;Q= 0.0029 I=  1.0)
  e**2qQ            =     0.192881 MHz 
  e**2qQ/(4I*(2I-1))=     0.048220 MHz 
  eta               =     0.011577
  NOTE: the diagonal representation of the SH term I*Q*I = e**2qQ/(4I(2I-1))*[-(1-eta),-(1+eta),2]

 RHO(0)=      0.442486879 a.u.**-3

 -----------------------------------------------------------
 Nucleus   0V : A:ISTP=   51 I=  3.5 P=140.5173 MHz/au**3
                Q:ISTP=   51 I=  3.5 Q= -0.0430 barn     
 -----------------------------------------------------------
 Solving for nuclear perturbation:
Forming RHS of the CP-SCF equations         ... 
Calc. nucleus orbit integrals (SHARK)       ... done

------------------------------------------------------------------------------
                           ORCA CP-SCF CALCULATION
------------------------------------------------------------------------------

Input orbitals are from        ... input_77.gbw
Input Perturbation             ... input_77.pin.tmp
Wavefunction output            ... input_77.pout.tmp
Perturbation mode              ... Imaginary perturbation
Solver                         ... POPLE
Max. number of iterations      ... 64
Convergence tolerance          ... 1.000e-03
Integral handling              ... Direct
DFT GridXC                     ... 1
COSX GridX                     ... 1
COSX IntAccX                   ... 3.067
COSX Algorithm                 ... Auto
Number of perturbations        ... 3
Number of operators            ... 2
Orbital ranges used for CP-SCF:
 Operator 0:  Orbitals   0...160  to 161...680
 Operator 1:  Orbitals   0...159  to 160...680
Variables per perturbation     ... 167080
DFT calculation                         ... on
XC functional terms                     ... off
Hybrid DFT                              ... on
   Exchange mixing (SCF)                ...  0.200
   Exchange mixing (CP-SCF)             ...  0.200
   GGA exch. scaling(SCF)               ...  0.720
   GGA exch. scaling (CP-SCF)           ...  0.720
   GGA corr. scaling (SCF)              ...  0.810
   GGA corr. scaling (CP-SCF)           ...  0.810

CP-SCF GRID
-----------

General Integration Accuracy     IntAcc      ... 3.467
Radial Grid Type                 RadialGrid  ... OptM3 with GC (2021)
Angular Grid (max. ang.)         AngularGrid ... 1 (Lebedev-50)
Angular grid pruning method      GridPruning ... 4 (adaptive)
Weight generation scheme         WeightScheme... Becke
Basis function cutoff            BFCut       ... 1.0000e-10
Integration weight cutoff        WCut        ... 1.0000e-14
Angular grids for H and He will be reduced by one unit
Partially contracted basis set               ... off
Rotationally invariant grid construction     ... off

Total number of grid points                  ...    39395
Total number of batches                      ...      635
Average number of points per batch           ...       62
Average number of grid points per atom       ...      985

CP-SCF GRIDX
------------

General Integration Accuracy     IntAcc      ... 3.067
Radial Grid Type                 RadialGrid  ... OptM3 with GC (2021)
Angular Grid (max. ang.)         AngularGrid ... 1 (Lebedev-50)
Angular grid pruning method      GridPruning ... 4 (adaptive)
Weight generation scheme         WeightScheme... Becke
Basis function cutoff            BFCut       ... 1.0000e-10
Integration weight cutoff        WCut        ... 1.0000e-14
Angular grids for H and He will be reduced by one unit
Partially contracted basis set               ... on
Rotationally invariant grid construction     ... off

Total number of grid points                  ...    17773
Total number of batches                      ...      303
Average number of points per batch           ...       58
Average number of grid points per atom       ...      444

Memory available               ... 807.5 MB
Memory needed per perturbation ...  48.1 MB
Perturbations treated per batch... 3
Number of batches              ... 1
     CP-SCF ITERATION   0:   1.9747e+01 (   6.7 sec   0/  3 done)
     CP-SCF ITERATION   1:   8.0304e+00 (   6.3 sec   0/  3 done)
     CP-SCF ITERATION   2:   3.3766e+00 (   6.4 sec   0/  3 done)
     CP-SCF ITERATION   3:   1.5813e+00 (   6.3 sec   0/  3 done)
     CP-SCF ITERATION   4:   1.0337e+00 (   6.3 sec   0/  3 done)
     CP-SCF ITERATION   5:   2.8451e-01 (   6.4 sec   0/  3 done)
     CP-SCF ITERATION   6:   1.1271e-01 (   6.4 sec   0/  3 done)
     CP-SCF ITERATION   7:   4.1900e-02 (   6.4 sec   0/  3 done)
     CP-SCF ITERATION   8:   1.4886e-02 (   6.4 sec   0/  3 done)
     CP-SCF ITERATION   9:   6.2585e-03 (   6.5 sec   0/  3 done)
     CP-SCF ITERATION  10:   1.6158e-03 (   6.5 sec   1/  3 done)
     CP-SCF ITERATION  11:   7.7754e-04 (   5.2 sec   3/  3 done)
                    *** THE CP-SCF HAS CONVERGED ***

Forming final perturbed densities           ... done
Transforming perturbed density to AO basis  ... done

 Raw HFC matrix (all values in MHz): 
 -----------------------------------
              -245.3723              68.6216              -0.6063
                68.4681             -86.0395               4.2715
                -0.8657               4.1077            -235.0179

 A(FC)        -155.4685            -155.4685            -155.4685
 A(SD)         120.6685             -41.7935             -78.8749
 A(ORB+DIA)    -25.7329             -37.7047             -36.5867    A(PC) = -33.3414
 A(ORB)        -25.7328             -37.7047             -36.5862    A(PC) = -33.3412
 A(DIA)         -0.0001              -0.0000              -0.0005    A(PC) =  -0.0002
             ----------           ----------           ----------
 A(Tot)        -60.5329            -234.9667            -270.9301    A(iso)= -188.8099
 Orientation: 
  X          -0.3477983            0.0611953            0.9355701
  Y          -0.9373177            0.0004270           -0.3484758
  Z          -0.0217246           -0.9981257            0.0572109

Notes:  (1) The A matrix conforms to the "SAI" spin Hamiltonian convention.
        (2) Tensor is right-handed.

 Raw EFG matrix (all values in a.u.**-3):
 -----------------------------------
             0.4017      -0.5454       0.5585
            -0.5454      -0.7989      -0.2515
             0.5585      -0.2515       0.3972

 V(El)      -0.6800      -1.0391       1.7191
 V(Nuc)      0.5645       0.0286      -0.5931
         ----------   ----------   ----------
 V(Tot)     -0.1155      -1.0105       1.1260 
 Orientation: 
  X      -0.6100552   -0.3503746    0.7106830
  Y       0.2052478   -0.9361844   -0.2853631
  Z       0.7653143   -0.0282211    0.6430378

Note: Tensor is right-handed


 Quadrupole tensor eigenvalues (in MHz;Q=-0.0430 I=  3.5)
  e**2qQ            =   -11.376753 MHz 
  e**2qQ/(4I*(2I-1))=    -0.135438 MHz 
  eta               =     0.794889
  NOTE: the diagonal representation of the SH term I*Q*I = e**2qQ/(4I(2I-1))*[-(1-eta),-(1+eta),2]

 RHO(0)=   8114.125607968 a.u.**-3


--------------------------------------------------------------------------------
----------------------------------------------------------------------------
                           ORCA EULER ANGLE PROGRAM
----------------------------------------------------------------------------

Only g-tensor available        -->  using g-tensor as reference tensor

Reference tensor               ...  g

g-tensor ordering              ...  |g_min> --> |gx>
                                    |g_mid> --> |gy>
                                    |g_max> --> |gz>

A- and EFG-tensor ordering     ...  the axes |Ax>, |Qx>, |Ay>, etc. are assigned
                                    such that the Euler rotation is minimal. You
                                    can find the respective eigenvalues as Ax,
                                    EFGx, Ay, etc. in the tables below.
                                    The relation of |Ax>, |Ay>,  etc. to Amin, Amid, etc.
                                    (as printed in the ORCA EPR/NMR CALCULATION Output)
                                    is obtained in the detailed printout.

Euler rotation around          ...  z - y - z
   First rotation              -->  by alpha around z
   Second rotation             -->  by beta around y'
   Third rotation              -->  by gamma around z''
   Positive / Negative angle   -->  clockwise / counterclockwise rotation

Plot EFG-tensors                    (-)
Plot HFC-tensors                    (-)
Detailed Printout                   (-)

-------------------------------------------------------------------------
          Euler rotation of hyperfine tensor to g-tensor
-------------------------------------------------------------------------

-------------------------------------------------------------------
 Atom  |   Alpha    Beta    Gamma   |   Ax       Ay       Az 
       |          [degrees]         |           [MHz]         
-------------------------------------------------------------------
 25H       -9.5     13.2    -19.1       0.38    -0.20    -0.17
 26H      -19.0     17.8     -1.9       0.21    -0.13    -0.12
 27H      -46.2      5.6     20.3       0.17    -0.11    -0.11
 28H      -29.7      5.3     14.2       0.17    -0.10    -0.09
 29H     -165.2      8.6    145.1       0.21    -0.13    -0.12
 30H     -133.7      8.1    106.0       0.38    -0.20    -0.17
 34H      -29.2     11.8      3.4       0.31    -0.19    -0.12
 35H      -19.2     15.3      1.3       0.19    -0.10    -0.08
 36H      -38.7      4.2     28.5       0.15    -0.10    -0.09
 37H      -54.1      3.9     32.3       0.13    -0.11    -0.09
 38H     -178.7      8.9    163.0       0.19    -0.11    -0.08
 39H     -175.2      6.3    150.9       0.31    -0.19    -0.12
  0V     -106.8      2.5     65.0    -234.97  -270.93   -60.53
-------------------------------------------------------------------


-------------------------------------------------------------------------------
    Euler rotation of Electric Field Gradient (EFG) tensor to g-tensor
-------------------------------------------------------------------------------

-------------------------------------------------------------------
 Atom  |   Alpha    Beta    Gamma  |   EFGx     EFGy     EFGz
       |          [degrees]        |         [a.u.**-3]       
-------------------------------------------------------------------
 25H       83.0     40.1    -57.9      0.29    -0.15    -0.14
 26H     -117.6     33.5    143.7     -0.15    -0.14     0.29
 27H      -10.7      5.9     22.0     -0.15     0.28    -0.14
 28H        6.4      6.0     21.5      0.28    -0.15    -0.14
 29H       46.8     41.0    -23.6     -0.15    -0.14     0.29
 30H      -78.2     39.3    107.9      0.29    -0.15    -0.14
 34H       -7.0     39.2    -36.2     -0.15     0.29    -0.14
 35H      153.2     34.4    164.8     -0.14    -0.15     0.29
 36H      -94.0      6.0     53.5     -0.15     0.28    -0.14
 37H      -20.5      6.0     53.4     -0.15     0.28    -0.14
 38H       45.7     40.2     -0.8     -0.15    -0.14     0.29
 39H     -168.2     40.3    129.5     -0.15     0.29    -0.14
  0V      -76.1      2.8     71.0     -0.12     1.13    -1.01
-------------------------------------------------------------------


Maximum memory used throughout the entire EPRNMR-calculation: 328.1 MB

Timings for individual modules:

Sum of individual times         ...     4490.804 sec (=  74.847 min)
GTO integral calculation        ...        1.363 sec (=   0.023 min)   0.0 %
Spin-Orbit-Coupling Matrices    ...       12.945 sec (=   0.216 min)   0.3 %
SCF iterations                  ...      701.478 sec (=  11.691 min)  15.6 %
EPR/NMR calculation             ...     3775.019 sec (=  62.917 min)  84.1 %
                             ****ORCA TERMINATED NORMALLY****
TOTAL RUN TIME: 0 days 1 hours 14 minutes 51 seconds 879 msec
