
                                 *****************
                                 * O   R   C   A *
                                 *****************

                                            #,                                       
                                            ###                                      
                                            ####                                     
                                            #####                                    
                                            ######                                   
                                           ########,                                 
                                     ,,################,,,,,                         
                               ,,#################################,,                 
                          ,,##########################################,,             
                       ,#########################################, ''#####,          
                    ,#############################################,,   '####,        
                  ,##################################################,,,,####,       
                ,###########''''           ''''###############################       
              ,#####''   ,,,,##########,,,,          '''####'''          '####       
            ,##' ,,,,###########################,,,                        '##       
           ' ,,###''''                  '''############,,,                           
         ,,##''                                '''############,,,,        ,,,,,,###''
      ,#''                                            '''#######################'''  
     '                                                          ''''####''''         
             ,#######,   #######,   ,#######,      ##                                
            ,#'     '#,  ##    ##  ,#'     '#,    #''#        ######   ,####,        
            ##       ##  ##   ,#'  ##            #'  '#       #        #'  '#        
            ##       ##  #######   ##           ,######,      #####,   #    #        
            '#,     ,#'  ##    ##  '#,     ,#' ,#      #,         ##   #,  ,#        
             '#######'   ##     ##  '#######'  #'      '#     #####' # '####'        



                  #######################################################
                  #                        -***-                        #
                  #          Department of theory and spectroscopy      #
                  #    Directorship and core code : Frank Neese         #
                  #        Max Planck Institute fuer Kohlenforschung    #
                  #                Kaiser Wilhelm Platz 1               #
                  #                 D-45470 Muelheim/Ruhr               #
                  #                      Germany                        #
                  #                                                     #
                  #                  All rights reserved                #
                  #                        -***-                        #
                  #######################################################


                         Program Version 5.0.4 -  RELEASE  -


 With contributions from (in alphabetic order):
   Daniel Aravena         : Magnetic Suceptibility
   Michael Atanasov       : Ab Initio Ligand Field Theory (pilot matlab implementation)
   Alexander A. Auer      : GIAO ZORA, VPT2 properties, NMR spectrum
   Ute Becker             : Parallelization
   Giovanni Bistoni       : ED, misc. LED, open-shell LED, HFLD
   Martin Brehm           : Molecular dynamics
   Dmytro Bykov           : SCF Hessian
   Vijay G. Chilkuri      : MRCI spin determinant printing, contributions to CSF-ICE
   Dipayan Datta          : RHF DLPNO-CCSD density
   Achintya Kumar Dutta   : EOM-CC, STEOM-CC
   Dmitry Ganyushin       : Spin-Orbit,Spin-Spin,Magnetic field MRCI
   Miquel Garcia          : C-PCM and meta-GGA Hessian, CC/C-PCM, Gaussian charge scheme
   Yang Guo               : DLPNO-NEVPT2, F12-NEVPT2, CIM, IAO-localization
   Andreas Hansen         : Spin unrestricted coupled pair/coupled cluster methods
   Benjamin Helmich-Paris : MC-RPA, TRAH-SCF, COSX integrals
   Lee Huntington         : MR-EOM, pCC
   Robert Izsak           : Overlap fitted RIJCOSX, COSX-SCS-MP3, EOM
   Marcus Kettner         : VPT2
   Christian Kollmar      : KDIIS, OOCD, Brueckner-CCSD(T), CCSD density, CASPT2, CASPT2-K
   Simone Kossmann        : Meta GGA functionals, TD-DFT gradient, OOMP2, MP2 Hessian
   Martin Krupicka        : Initial AUTO-CI
   Lucas Lang             : DCDCAS
   Marvin Lechner         : AUTO-CI (C++ implementation), FIC-MRCC
   Dagmar Lenk            : GEPOL surface, SMD
   Dimitrios Liakos       : Extrapolation schemes; Compound Job, initial MDCI parallelization
   Dimitrios Manganas     : Further ROCIS development; embedding schemes
   Dimitrios Pantazis     : SARC Basis sets
   Anastasios Papadopoulos: AUTO-CI, single reference methods and gradients
   Taras Petrenko         : DFT Hessian,TD-DFT gradient, ASA, ECA, R-Raman, ABS, FL, XAS/XES, NRVS
   Peter Pinski           : DLPNO-MP2, DLPNO-MP2 Gradient
   Christoph Reimann      : Effective Core Potentials
   Marius Retegan         : Local ZFS, SOC
   Christoph Riplinger    : Optimizer, TS searches, QM/MM, DLPNO-CCSD(T), (RO)-DLPNO pert. Triples
   Tobias Risthaus        : Range-separated hybrids, TD-DFT gradient, RPA, STAB
   Michael Roemelt        : Original ROCIS implementation
   Masaaki Saitow         : Open-shell DLPNO-CCSD energy and density
   Barbara Sandhoefer     : DKH picture change effects
   Avijit Sen             : IP-ROCIS
   Kantharuban Sivalingam : CASSCF convergence, NEVPT2, FIC-MRCI
   Bernardo de Souza      : ESD, SOC TD-DFT
   Georgi Stoychev        : AutoAux, RI-MP2 NMR, DLPNO-MP2 response
   Willem Van den Heuvel  : Paramagnetic NMR
   Boris Wezisla          : Elementary symmetry handling
   Frank Wennmohs         : Technical directorship


 We gratefully acknowledge several colleagues who have allowed us to
 interface, adapt or use parts of their codes:
   Stefan Grimme, W. Hujo, H. Kruse, P. Pracht,  : VdW corrections, initial TS optimization,
                  C. Bannwarth, S. Ehlert          DFT functionals, gCP, sTDA/sTD-DF
   Ed Valeev, F. Pavosevic, A. Kumar             : LibInt (2-el integral package), F12 methods
   Garnet Chan, S. Sharma, J. Yang, R. Olivares  : DMRG
   Ulf Ekstrom                                   : XCFun DFT Library
   Mihaly Kallay                                 : mrcc  (arbitrary order and MRCC methods)
   Jiri Pittner, Ondrej Demel                    : Mk-CCSD
   Frank Weinhold                                : gennbo (NPA and NBO analysis)
   Christopher J. Cramer and Donald G. Truhlar   : smd solvation model
   Lars Goerigk                                  : TD-DFT with DH, B97 family of functionals
   V. Asgeirsson, H. Jonsson                     : NEB implementation
   FAccTs GmbH                                   : IRC, NEB, NEB-TS, DLPNO-Multilevel, CI-OPT
                                                   MM, QMMM, 2- and 3-layer-ONIOM, Crystal-QMMM,
                                                   LR-CPCM, SF, NACMEs, symmetry and pop. for TD-DFT,
                                                   nearIR, NL-DFT gradient (VV10), updates on ESD,
                                                   ML-optimized integration grids
   S Lehtola, MJT Oliveira, MAL Marques          : LibXC Library
   Liviu Ungur et al                             : ANISO software


 Your calculation uses the libint2 library for the computation of 2-el integrals
 For citations please refer to: http://libint.valeyev.net

 Your ORCA version has been built with support for libXC version: 5.1.0
 For citations please refer to: https://tddft.org/programs/libxc/

 This ORCA versions uses:
   CBLAS   interface :  Fast vector & matrix operations
   LAPACKE interface :  Fast linear algebra routines
   SCALAPACK package :  Parallel linear algebra routines
   Shared memory     :  Shared parallel matrices
   BLAS/LAPACK       :  OpenBLAS 0.3.15  USE64BITINT DYNAMIC_ARCH NO_AFFINITY Prescott SINGLE_THREADED
        Core in use  :  Prescott
   Copyright (c) 2011-2014, The OpenBLAS Project


================================================================================

----- Orbital basis set information -----
Your calculation utilizes the basis: TZVP 

The basis set includes element-specific modifications.

Your calculation utilizes the basis: CP(PPP) 

----- AuxJ basis set information -----
Your calculation utilizes the auxiliary basis: def2/J
   F. Weigend, Phys. Chem. Chem. Phys. 8, 1057 (2006).

================================================================================
                                        WARNINGS
                       Please study these warnings very carefully!
================================================================================


WARNING: your system is open-shell and RHF/RKS was chosen
  ===> : WILL SWITCH to UHF/UKS


INFO   : the flag for use of the SHARK integral package has been found!

================================================================================
                                       INPUT FILE
================================================================================
NAME = input_48.inp
|  1> ! nofrozencore ReducedPop printbasis
|  2> ! B3LYP TZVP
|  3> 
|  4> %basis
|  5> newgto V "CP(PPP)" end
|  6> end
|  7> 
|  8> %pal
|  9> nprocs 6
| 10> end
| 11> 
| 12> % sym SymThresh 1e-2 end
| 13> * xyz -2 2 
| 14> V -0.26786927710288255 1.0805810118619112 -0.016894728907778073
| 15> S -2.152650672536528 0.10314885497559122 -1.2858406562938727
| 16> S -1.3046080899631523 0.07473429689114418 1.9907995109018088
| 17> S 1.0574698024252156 0.7316895549607757 -2.079205519793336
| 18> S 1.8592933134540444 0.6145276430978786 1.1386786952708157
| 19> O -0.5407649792992776 2.6409018377490305 0.10549305514223613
| 20> C 0.015734134473889463 0.21151594071798918 3.10404185026403
| 21> C 1.285740567990913 0.4258114430725101 2.7610981675842154
| 22> C -1.4739512550213576 0.022645573319694013 -2.900164747538317
| 23> C -0.19236630183197423 0.2707713609906799 -3.215381847457117
| 24> S -0.2076348760285348 -0.022863388398661384 4.8301884632859355
| 25> S 2.393747455518234 0.3991377874138246 4.1217268730107985
| 26> S 0.24185334634959157 0.05749780498211429 -4.935131879019418
| 27> S -2.5247945580368194 -0.4716212162812911 -4.258377138744526
| 28> C 1.3526387013504189 0.23775211881099373 5.4550913780302475
| 29> C -1.317455547543384 -0.4716659093999163 -5.52463015671892
| 30> C 1.7526106207611898 -0.042000729774211806 6.7469905869298135
| 31> C -1.5607584123345561 -0.8472323661041304 -6.817369423112592
| 32> S 0.5307604851436326 -0.28343090677475086 8.005127029113588
| 33> S 3.4597153745513984 0.12942832758941292 7.186551865265712
| 34> S -3.1566866233272513 -1.3938147745209661 -7.3519994240187385
| 35> S -0.28603101427066385 -0.8622519963988956 -8.045595121233694
| 36> C -0.2537604668837064 -2.6724039012459113 -8.41587999142969
| 37> C -2.7356053784832057 -3.1305129191226206 -7.822273546005863
| 38> C -1.6181485821637331 -3.1990589172738666 -8.864971027647528
| 39> H 0.12214956411295771 -3.208246134957303 -7.540468985740777
| 40> H 0.47213473872802064 -2.7847120502794036 -9.226566148891736
| 41> H -1.500845419489238 -4.245820210367917 -9.181086628679228
| 42> H -1.9335280767276684 -2.6285565707105643 -9.745522880081761
| 43> H -3.658214577108805 -3.5429373887266533 -8.24103837962046
| 44> H -2.4852030173864796 -3.6937737631358156 -6.919645701698072
| 45> C 3.2463955412402434 1.621749228042392 8.317312985151478
| 46> C 0.9012233231207925 1.294596248161377 8.967287102279741
| 47> C 2.310783223104717 1.5423632043187463 9.539409659163159
| 48> H 0.7275522176558746 2.1006044662396866 8.22531846686661
| 49> H 0.10627343436138323 1.3711268575183593 9.739707274074764
| 50> H 2.6310716291183396 0.8370042890425677 10.341338724713639
| 51> H 2.2883028668785075 2.5767613867937933 9.978021348157267
| 52> H 4.274508286249625 1.9464001996376292 8.585323547802545
| 53> H 2.8129626728073855 2.3949408112480346 7.6506598473429035
| 54> * 
| 55> 
| 56> % eprnmr
| 57> gtensor true
| 58> Nuclei = all H {aiso,adip,aorb,fgrad,rho}
| 59> Nuclei = all V {aiso,adip,aorb,fgrad,rho}
| 60> end
| 61> 
| 62>                          ****END OF INPUT****
================================================================================

------------------------------------------------------------------------------
                            SYMMETRY HANDLING SETUP
------------------------------------------------------------------------------

------------------
SYMMETRY DETECTION
------------------
The point group will now be determined using a tolerance of 1.0000e-02.
Splitting atom subsets according to nuclear charge, mass and basis set.
Splitting atom subsets according to distance from the molecule's center.
Identifying relative distance patterns of the atoms.
Splitting atom subsets according to atoms' relative distance patterns.
Bring atoms of each subset into input order.
The molecule is neither linear nor planar.
There is at least one atom subset not centered around the molecule's center.
The molecule does not have a center of inversion.
Analyzing the first atom subset for its symmetry.
The subset consists of a single off-center atom.
No testing is needed for point group C1.
This point group has been found:    C1
Largest non-degenerate subgroup:    C1


Mass-centered symmetry-perfected Cartesians (point group C1):

Atom          Symmetry-perfected Cartesians (x, y, z; au)
  0      -0.504092404390    2.036467873869   -0.027752996832
  1      -4.065813064069    0.189388782866   -2.425713278347
  2      -2.463244833102    0.135693049870    3.766239277059
  3       2.000435490502    1.377158569861   -3.924955594636
  4       3.515662334085    1.155754643113    2.155964302503
  5      -1.019790544665    4.985046915849    0.203526397160
  6       0.031840374136    0.394172896850    5.869962419140
  7       2.431804721801    0.799132708031    5.221892779516
  8      -2.783257037714    0.037259627654   -5.476343702190
  9      -0.361412458832    0.506149413116   -6.072017693765
 10      -0.390265882518   -0.048739846633    9.131906784747
 11       4.525634293726    0.748726803846    7.793108402724
 12       0.459143758199    0.103120800652   -9.321874272221
 13      -4.769063090078   -0.896769241784   -8.042993153268
 14       2.558223872721    0.443752088247   10.312802153903
 15      -2.487523009446   -0.896853699538  -10.435864573491
 16       3.314061261667   -0.084904180764   12.754137851352
 17      -2.947298791500   -1.606571447797  -12.878787749541
 18       1.005099128655   -0.541141095759   15.131671166186
 19       6.540021728245    0.239049789050   13.584788286483
 20      -5.963166039675   -2.639462509324  -13.889092034232
 21      -0.538413113753   -1.634954435686  -15.199797949634
 22      -0.477430617000   -5.055645796643  -15.899534945839
 23      -5.167437806789   -5.921346379910  -14.777781332658
 24      -3.055750495256   -6.050879543992  -16.748194013490
 25       0.232936392577   -6.068240869346  -14.245247890467
 26       0.894312523533   -5.267877440924  -17.431509764004
 27      -2.834079643159   -8.028971715529  -17.345565926100
 28      -3.651731368237   -4.972786350228  -18.412195861308
 29      -6.910916520828   -6.700715678389  -15.569132182707
 30      -4.694245921029   -6.985755117056  -13.072061906064
 31       6.136905664353    3.059127594833   15.721617125954
 32       1.705172435227    2.440898058961   16.949890201463
 33       4.368854615554    2.909109751134   18.031045149012
 34       1.376981608523    3.964032852819   15.547772680573
 35       0.202934855280    2.585519951508   18.409552786472
 36       4.974111986790    1.576174575142   19.546471461734
 37       4.326372898893    4.863839029438   18.859901120347
 38       8.079757187215    3.672629020259   16.228083690362
 39       5.317836245575    4.520247936144   14.461825269176


------------------
SYMMETRY REDUCTION
------------------
ORCA supports only abelian point groups.
It is now checked, if the determined point group is supported:
Point Group ( C1    ) is          ... supported

The point group is C1 - hence turning off symmetry
If this is a round-off problem, please increase the symmetry
        detection tolerance (%method SymThresh)

Storing the symmetry object:
Symmetry file                     ... input_48.sym.tmp
Writing symmetry information      ... done

                       ****************************
                       * Single Point Calculation *
                       ****************************

---------------------------------
CARTESIAN COORDINATES (ANGSTROEM)
---------------------------------
  V     -0.266754    1.077652   -0.014686
  S     -2.151536    0.100220   -1.283632
  S     -1.303493    0.071806    1.993008
  S      1.058585    0.728761   -2.076997
  S      1.860408    0.611599    1.140887
  O     -0.539650    2.637973    0.107702
  C      0.016849    0.208587    3.106250
  C      1.286856    0.422883    2.763307
  C     -1.472836    0.019717   -2.897956
  C     -0.191251    0.267843   -3.213173
  S     -0.206520   -0.025792    4.832397
  S      2.394863    0.396209    4.123935
  S      0.242968    0.054569   -4.932923
  S     -2.523679   -0.474550   -4.256169
  C      1.353754    0.234823    5.457300
  C     -1.316340   -0.474595   -5.522422
  C      1.753726   -0.044929    6.749199
  C     -1.559643   -0.850161   -6.815161
  S      0.531876   -0.286360    8.007336
  S      3.460830    0.126500    7.188760
  S     -3.155572   -1.396743   -7.349791
  S     -0.284916   -0.865181   -8.043387
  C     -0.252645   -2.675333   -8.413672
  C     -2.734490   -3.133442   -7.820065
  C     -1.617034   -3.201988   -8.862763
  H      0.123265   -3.211175   -7.538261
  H      0.473250   -2.787641   -9.224358
  H     -1.499730   -4.248749   -9.178878
  H     -1.932413   -2.631485   -9.743314
  H     -3.657100   -3.545866   -8.238830
  H     -2.484088   -3.696702   -6.917437
  C      3.247511    1.618821    8.319521
  C      0.902338    1.291668    8.969496
  C      2.311898    1.539435    9.541618
  H      0.728667    2.097676    8.227527
  H      0.107389    1.368198    9.741916
  H      2.632187    0.834076   10.343547
  H      2.289418    2.573833    9.980230
  H      4.275623    1.943472    8.587532
  H      2.814078    2.392012    7.652868

----------------------------
CARTESIAN COORDINATES (A.U.)
----------------------------
  NO LB      ZA    FRAG     MASS         X           Y           Z
   0 V    23.0000    0    50.940   -0.504092    2.036468   -0.027753
   1 S    16.0000    0    32.060   -4.065813    0.189389   -2.425713
   2 S    16.0000    0    32.060   -2.463245    0.135693    3.766239
   3 S    16.0000    0    32.060    2.000435    1.377159   -3.924956
   4 S    16.0000    0    32.060    3.515662    1.155755    2.155964
   5 O     8.0000    0    15.999   -1.019791    4.985047    0.203526
   6 C     6.0000    0    12.011    0.031840    0.394173    5.869962
   7 C     6.0000    0    12.011    2.431805    0.799133    5.221893
   8 C     6.0000    0    12.011   -2.783257    0.037260   -5.476344
   9 C     6.0000    0    12.011   -0.361412    0.506149   -6.072018
  10 S    16.0000    0    32.060   -0.390266   -0.048740    9.131907
  11 S    16.0000    0    32.060    4.525634    0.748727    7.793108
  12 S    16.0000    0    32.060    0.459144    0.103121   -9.321874
  13 S    16.0000    0    32.060   -4.769063   -0.896769   -8.042993
  14 C     6.0000    0    12.011    2.558224    0.443752   10.312802
  15 C     6.0000    0    12.011   -2.487523   -0.896854  -10.435865
  16 C     6.0000    0    12.011    3.314061   -0.084904   12.754138
  17 C     6.0000    0    12.011   -2.947299   -1.606571  -12.878788
  18 S    16.0000    0    32.060    1.005099   -0.541141   15.131671
  19 S    16.0000    0    32.060    6.540022    0.239050   13.584788
  20 S    16.0000    0    32.060   -5.963166   -2.639463  -13.889092
  21 S    16.0000    0    32.060   -0.538413   -1.634954  -15.199798
  22 C     6.0000    0    12.011   -0.477431   -5.055646  -15.899535
  23 C     6.0000    0    12.011   -5.167438   -5.921346  -14.777781
  24 C     6.0000    0    12.011   -3.055750   -6.050880  -16.748194
  25 H     1.0000    0     1.008    0.232936   -6.068241  -14.245248
  26 H     1.0000    0     1.008    0.894313   -5.267877  -17.431510
  27 H     1.0000    0     1.008   -2.834080   -8.028972  -17.345566
  28 H     1.0000    0     1.008   -3.651731   -4.972786  -18.412196
  29 H     1.0000    0     1.008   -6.910917   -6.700716  -15.569132
  30 H     1.0000    0     1.008   -4.694246   -6.985755  -13.072062
  31 C     6.0000    0    12.011    6.136906    3.059128   15.721617
  32 C     6.0000    0    12.011    1.705172    2.440898   16.949890
  33 C     6.0000    0    12.011    4.368855    2.909110   18.031045
  34 H     1.0000    0     1.008    1.376982    3.964033   15.547773
  35 H     1.0000    0     1.008    0.202935    2.585520   18.409553
  36 H     1.0000    0     1.008    4.974112    1.576175   19.546471
  37 H     1.0000    0     1.008    4.326373    4.863839   18.859901
  38 H     1.0000    0     1.008    8.079757    3.672629   16.228084
  39 H     1.0000    0     1.008    5.317836    4.520248   14.461825

--------------------------------
INTERNAL COORDINATES (ANGSTROEM)
--------------------------------
 V      0   0   0     0.000000000000     0.00000000     0.00000000
 S      1   0   0     2.473458771946     0.00000000     0.00000000
 S      1   2   0     2.473336034726    86.34947185     0.00000000
 S      1   2   3     2.476161287684    85.69265210   148.43347578
 S      1   2   3     2.465233532116   145.41424585    74.84299117
 O      1   2   3     1.588726506879   107.26157331   255.04238397
 C      3   1   2     1.732432196038    99.79037072   165.57588059
 C      7   3   1     1.332835050932   124.99881268   342.81270569
 C      2   1   3     1.753041913151   101.27761753   202.59779221
 C      9   2   1     1.342902907447   125.25010508     8.20686843
 S      7   3   1     1.756248705172   121.60811867   166.56581711
 S      8   7   3     1.754907752774   113.55786173   184.09857706
 S     10   9   2     1.786497266614   115.83994776   177.89537814
 S      9   2   1     1.786984109169   119.00910934   186.29187651
 C     12   8   7     1.699356841655   102.88390465   354.90211936
 C     13  10   9     1.748990189396    98.27244945   358.48195726
 C     15  12   8     1.381029600901   125.15517386   169.17832196
 C     16  13  10     1.367998997914   124.06512305   183.03436959
 S     17  15  12     1.770342789243   119.50797617   184.01225225
 S     17  15  12     1.771103802586   119.45326770    14.86695571
 S     18  16  13     1.769623807961   122.05185352   179.21480277
 S     18  16  13     1.770224249691   121.99957300     1.09298356
 C     22  18  16     1.847918340173    99.20193831   116.26362015
 C     21  18  16     1.847860278818    99.30370265   243.57758742
 C     23  22  18     1.529903001447   112.36164328    57.05680541
 H     23  22  18     1.093059778655   109.00974773   292.42023360
 H     23  22  18     1.093960244145   105.10827810   176.43880523
 H     25  23  22     1.099726470496   108.47639536   173.37602348
 H     25  23  22     1.095586015724   108.26380659    57.38933686
 H     24  21  18     1.093922146402   105.04451616   183.95583509
 H     24  21  18     1.093023854342   109.04810828    67.98331634
 C     20  17  15     1.884448919833    96.68810296   111.06569733
 C     19  17  15     1.884983931611    96.48493878   249.04874695
 C     32  20  17     1.541166062188   120.24839488    58.20919895
 H     33  19  17     1.109201675269   103.65724090    59.28943030
 H     33  19  17     1.111051385672   105.77781007   172.40844242
 H     34  32  20     1.114991519502   115.37372647    65.97378383
 H     34  32  20     1.123772743950   105.91604613   185.24531011
 H     32  20  17     1.110965225154   105.74847592   187.12555606
 H     32  20  17     1.109105802856   103.62890574   300.21973651

---------------------------
INTERNAL COORDINATES (A.U.)
---------------------------
 V      0   0   0     0.000000000000     0.00000000     0.00000000
 S      1   0   0     4.674159682524     0.00000000     0.00000000
 S      1   2   0     4.673927742790    86.34947185     0.00000000
 S      1   2   3     4.679266697141    85.69265210   148.43347578
 S      1   2   3     4.658616231859   145.41424585    74.84299117
 O      1   2   3     3.002257999702   107.26157331   255.04238397
 C      3   1   2     3.273822396099    99.79037072   165.57588059
 C      7   3   1     2.518693227953   124.99881268   342.81270569
 C      2   1   3     3.312769117141   101.27761753   202.59779221
 C      9   2   1     2.537718719522   125.25010508     8.20686843
 S      7   3   1     3.318829075828   121.60811867   166.56581711
 S      8   7   3     3.316295043037   113.55786173   184.09857706
 S     10   9   2     3.375990572899   115.83994776   177.89537814
 S      9   2   1     3.376910571998   119.00910934   186.29187651
 C     12   8   7     3.211319034534   102.88390465   354.90211936
 C     13  10   9     3.305112468873    98.27244945   358.48195726
 C     15  12   8     2.609767728541   125.15517386   169.17832196
 C     16  13  10     2.585143457536   124.06512305   183.03436959
 S     17  15  12     3.345463034832   119.50797617   184.01225225
 S     17  15  12     3.346901141634   119.45326770    14.86695571
 S     18  16  13     3.344104357113   122.05185352   179.21480277
 S     18  16  13     3.345239027542   121.99957300     1.09298356
 C     22  18  16     3.492059580776    99.20193831   116.26362015
 C     21  18  16     3.491949860717    99.30370265   243.57758742
 C     23  22  18     2.891097684199   112.36164328    57.05680541
 H     23  22  18     2.065583629663   109.00974773   292.42023360
 H     23  22  18     2.067285262832   105.10827810   176.43880523
 H     25  23  22     2.078181851461   108.47639536   173.37602348
 H     25  23  22     2.070357525873   108.26380659    57.38933686
 H     24  21  18     2.067213268531   105.04451616   183.95583509
 H     24  21  18     2.065515742550   109.04810828    67.98331634
 C     20  17  15     3.561092371847    96.68810296   111.06569733
 C     19  17  15     3.562103397588    96.48493878   249.04874695
 C     32  20  17     2.912381784429   120.24839488    58.20919895
 H     33  19  17     2.096087393545   103.65724090    59.28943030
 H     33  19  17     2.099582839633   105.77781007   172.40844242
 H     34  32  20     2.107028613503   115.37372647    65.97378383
 H     34  32  20     2.123622722832   105.91604613   185.24531011
 H     32  20  17     2.099420019851   105.74847592   187.12555606
 H     32  20  17     2.095906220940   103.62890574   300.21973651

---------------------
BASIS SET INFORMATION
---------------------
There are 5 groups of distinct atoms

 Group   1 Type V   : 17s11p5d1f contracted to 17s7p3d1f pattern {11111111111111111/3311111/311/1}
 Group   2 Type S   : 14s9p1d contracted to 5s4p1d pattern {73211/6111/1}
 Group   3 Type O   : 11s6p1d contracted to 5s3p1d pattern {62111/411/1}
 Group   4 Type C   : 11s6p1d contracted to 5s3p1d pattern {62111/411/1}
 Group   5 Type H   : 5s1p contracted to 3s1p pattern {311/1}

Atom   0V    basis set group =>   1
Atom   1S    basis set group =>   2
Atom   2S    basis set group =>   2
Atom   3S    basis set group =>   2
Atom   4S    basis set group =>   2
Atom   5O    basis set group =>   3
Atom   6C    basis set group =>   4
Atom   7C    basis set group =>   4
Atom   8C    basis set group =>   4
Atom   9C    basis set group =>   4
Atom  10S    basis set group =>   2
Atom  11S    basis set group =>   2
Atom  12S    basis set group =>   2
Atom  13S    basis set group =>   2
Atom  14C    basis set group =>   4
Atom  15C    basis set group =>   4
Atom  16C    basis set group =>   4
Atom  17C    basis set group =>   4
Atom  18S    basis set group =>   2
Atom  19S    basis set group =>   2
Atom  20S    basis set group =>   2
Atom  21S    basis set group =>   2
Atom  22C    basis set group =>   4
Atom  23C    basis set group =>   4
Atom  24C    basis set group =>   4
Atom  25H    basis set group =>   5
Atom  26H    basis set group =>   5
Atom  27H    basis set group =>   5
Atom  28H    basis set group =>   5
Atom  29H    basis set group =>   5
Atom  30H    basis set group =>   5
Atom  31C    basis set group =>   4
Atom  32C    basis set group =>   4
Atom  33C    basis set group =>   4
Atom  34H    basis set group =>   5
Atom  35H    basis set group =>   5
Atom  36H    basis set group =>   5
Atom  37H    basis set group =>   5
Atom  38H    basis set group =>   5
Atom  39H    basis set group =>   5

-------------------------
BASIS SET IN INPUT FORMAT
-------------------------

 # Basis set for element : H 
 NewGTO H 
 S 3 
   1      34.0613410000      0.0254393168
   2       5.1235746000      0.1900859340
   3       1.1646626000      0.8524411390
 S 1 
   1       0.3272304100      1.0000000000
 S 1 
   1       0.1030724100      1.0000000000
 P 1 
   1       0.8000000000      1.0000000000
  end;

 # Basis set for element : C 
 NewGTO C 
 S 6 
   1   13575.3496820000      0.0006064601
   2    2035.2333680000      0.0046978985
   3     463.2256235900      0.0243324735
   4     131.2001959800      0.0973999560
   5      42.8530158900      0.3019558443
   6      15.5841857700      0.6623361013
 S 2 
   1       6.2067138500      0.6559530795
   2       2.5764896500      0.3758563390
 S 1 
   1       0.5769633900      1.0000000000
 S 1 
   1       0.2297283100      1.0000000000
 S 1 
   1       0.0951644400      1.0000000000
 P 4 
   1      34.6972322400      0.0113272290
   2       7.9582622800      0.0761696612
   3       2.3780826900      0.3019225154
   4       0.8143320800      0.7278502776
 P 1 
   1       0.2888754700      1.0000000000
 P 1 
   1       0.1005682400      1.0000000000
 D 1 
   1       0.8000000000      1.0000000000
  end;

 # Basis set for element : O 
 NewGTO O 
 S 6 
   1   27032.3826310000      0.0005722654
   2    4052.3871392000      0.0044353333
   3     922.3272271000      0.0230201034
   4     261.2407098900      0.0928224938
   5      85.3546413500      0.2937849971
   6      31.0350352400      0.6740160462
 S 2 
   1      12.2608607300      0.6383993750
   2       4.9987076000      0.3953458663
 S 1 
   1       1.1703108200      1.0000000000
 S 1 
   1       0.4647474100      1.0000000000
 S 1 
   1       0.1850453600      1.0000000000
 P 4 
   1      63.2749548000      0.0120183316
   2      14.6270493800      0.0830054304
   3       4.4501223500      0.3199174388
   4       1.5275799600      0.7071554258
 P 1 
   1       0.5293511800      1.0000000000
 P 1 
   1       0.1747842100      1.0000000000
 D 1 
   1       1.2000000000      1.0000000000
  end;

 # Basis set for element : S 
 NewGTO S 
 S 7 
   1   60700.9281040000      0.0005238013
   2    9102.6106854000      0.0040506304
   3    2071.4166009000      0.0208270003
   4     586.0247682100      0.0814968475
   5     190.5539502100      0.2374911358
   6      67.6303842600      0.4472617145
   7      25.1273069100      0.3489191913
 S 3 
   1     112.5746301000      0.1004556993
   2      34.7955542200      0.4339117282
   3       6.5115556200     -1.2084330582
 S 2 
   1       3.2399032300      0.6749812922
   2       1.5477160900      0.3470879597
 S 1 
   1       0.4054103000      1.0000000000
 S 1 
   1       0.1455065100      1.0000000000
 P 6 
   1     564.3671602700      0.0025564845
   2     133.4262437900      0.0202874255
   3      42.4682711900      0.0927670112
   4      15.6165275800      0.2650208365
   5       6.1093988500      0.4486298663
   6       2.4404160200      0.3596369916
 P 1 
   1       0.8388220100      1.0000000000
 P 1 
   1       0.3128874700      1.0000000000
 P 1 
   1       0.1077010900      1.0000000000
 D 1 
   1       0.5500000000      1.0000000000
  end;

 # Basis set for element : V 
 NewGTO V 
 S 1 
   1  4239814.9912500000      1.0000000000
 S 1 
   1  1695925.9965000001      1.0000000000
 S 1 
   1  678370.3986000001      1.0000000000
 S 1 
   1  271348.1594400000      1.0000000000
 S 1 
   1   40672.0050780000      1.0000000000
 S 1 
   1    9257.0761385000      1.0000000000
 S 1 
   1    2622.7328773000      1.0000000000
 S 1 
   1     858.5948018500      1.0000000000
 S 1 
   1     314.1941865000      1.0000000000
 S 1 
   1     124.4786212700      1.0000000000
 S 1 
   1      50.4693993090      1.0000000000
 S 1 
   1      12.5138469110      1.0000000000
 S 1 
   1       5.3447758082      1.0000000000
 S 1 
   1       1.5755631295      1.0000000000
 S 1 
   1       0.6306903307      1.0000000000
 S 1 
   1       0.0879544416      1.0000000000
 S 1 
   1       0.0342969197      1.0000000000
 P 3 
   1    1450.0319327000     -0.0222847647
   2     343.7504988400     -0.1817959329
   3     110.8252170800     -0.8607412073
 P 3 
   1      41.8224645460     -0.2522537814
   2      17.0880737100     -0.4620379520
   3       7.2613218939     -0.3990010670
 P 1 
   1       2.9458145262      1.0000000000
 P 1 
   1       1.1650209680      1.0000000000
 P 1 
   1       0.4339937839      1.0000000000
 D 3 
   1      27.3603358640      0.0575501019
   2       7.4542765527      0.3023798347
   3       2.4632270217      0.7724212088
 D 1 
   1       0.8249954244      1.0000000000
 D 1 
   1       0.2526297057      1.0000000000
 P 1 
   1       0.1112480000      1.0000000000
 P 1 
   1       0.0363780000      1.0000000000
 F 1 
   1       1.8000000000      1.0000000000
  end;

---------------------------------
AUXILIARY/J BASIS SET INFORMATION
---------------------------------
There are 5 groups of distinct atoms

 Group   1 Type V   : 19s5p5d3f3g contracted to 8s5p5d2f3g pattern {121111111/11111/11111/21/111}
 Group   2 Type S   : 14s5p5d2f1g contracted to 8s4p3d1f1g pattern {71111111/2111/311/2/1}
 Group   3 Type O   : 12s5p4d2f1g contracted to 6s4p3d1f1g pattern {711111/2111/211/2/1}
 Group   4 Type C   : 12s5p4d2f1g contracted to 6s4p3d1f1g pattern {711111/2111/211/2/1}
 Group   5 Type H   : 5s2p1d contracted to 3s1p1d pattern {311/2/1}

Atom   0V    basis set group =>   1
Atom   1S    basis set group =>   2
Atom   2S    basis set group =>   2
Atom   3S    basis set group =>   2
Atom   4S    basis set group =>   2
Atom   5O    basis set group =>   3
Atom   6C    basis set group =>   4
Atom   7C    basis set group =>   4
Atom   8C    basis set group =>   4
Atom   9C    basis set group =>   4
Atom  10S    basis set group =>   2
Atom  11S    basis set group =>   2
Atom  12S    basis set group =>   2
Atom  13S    basis set group =>   2
Atom  14C    basis set group =>   4
Atom  15C    basis set group =>   4
Atom  16C    basis set group =>   4
Atom  17C    basis set group =>   4
Atom  18S    basis set group =>   2
Atom  19S    basis set group =>   2
Atom  20S    basis set group =>   2
Atom  21S    basis set group =>   2
Atom  22C    basis set group =>   4
Atom  23C    basis set group =>   4
Atom  24C    basis set group =>   4
Atom  25H    basis set group =>   5
Atom  26H    basis set group =>   5
Atom  27H    basis set group =>   5
Atom  28H    basis set group =>   5
Atom  29H    basis set group =>   5
Atom  30H    basis set group =>   5
Atom  31C    basis set group =>   4
Atom  32C    basis set group =>   4
Atom  33C    basis set group =>   4
Atom  34H    basis set group =>   5
Atom  35H    basis set group =>   5
Atom  36H    basis set group =>   5
Atom  37H    basis set group =>   5
Atom  38H    basis set group =>   5
Atom  39H    basis set group =>   5

-------------------------------------
AUXILIARY/J BASIS SET IN INPUT FORMAT
-------------------------------------

 # Auxiliary/J basis set for element : H 
 NewAuxJGTO H 
 S 3 
   1      15.6752927000      0.1007184237
   2       3.6063578000      0.3404257499
   3       1.2080016000      0.6491996172
 S 1 
   1       0.4726794000      1.0000000000
 S 1 
   1       0.2018100000      1.0000000000
 P 2 
   1       2.0281365000      0.5596620919
   2       0.5358730000      0.5596620919
 D 1 
   1       2.2165124000      1.0000000000
  end;

 # Auxiliary/J basis set for element : C 
 NewAuxJGTO C 
 S 7 
   1    1861.0916331000      0.0134602335
   2     642.9939764000      0.0299160374
   3     235.1105725000      0.1008649584
   4      90.7028894000      0.2370970548
   5      36.7794552000      0.3924037254
   6      15.6046273000      0.3195862154
   7       6.8907294000      0.0530104441
 S 1 
   1       3.1478850000     -1.0000000000
 S 1 
   1       1.4777287000      1.0000000000
 S 1 
   1       0.7076466000      1.0000000000
 S 1 
   1       0.3430122000      1.0000000000
 S 1 
   1       0.1669453000      1.0000000000
 P 2 
   1      13.5472892000     -0.6769313712
   2       5.4669419000     -0.3779500978
 P 1 
   1       2.1751721000      1.0000000000
 P 1 
   1       0.8582194000      1.0000000000
 P 1 
   1       0.3376720000      1.0000000000
 D 2 
   1       5.9287253000     -0.3533329857
   2       1.9809209000     -0.7456525731
 D 1 
   1       0.8055417000     -1.0000000000
 D 1 
   1       0.3531244000     -1.0000000000
 F 2 
   1       1.6755626000      0.6311076882
   2       0.5997536000      0.4968166032
 G 1 
   1       1.0024600000     -1.0000000000
  end;

 # Auxiliary/J basis set for element : O 
 NewAuxJGTO O 
 S 7 
   1    2876.8216605000      0.0168151159
   2    1004.7443032000      0.0340137548
   3     369.7579954000      0.1194951309
   4     142.9442404000      0.2664627624
   5      57.8366425000      0.4202764046
   6      24.3864983000      0.2765077335
   7      10.6622662000      0.0057008815
 S 1 
   1       4.8070437000     -1.0000000000
 S 1 
   1       2.2210770000      1.0000000000
 S 1 
   1       1.0447795000      1.0000000000
 S 1 
   1       0.4968425000      1.0000000000
 S 1 
   1       0.2371384000      1.0000000000
 P 2 
   1      64.2613382000     -0.2731534179
   2      16.3006076000     -0.8168011598
 P 1 
   1       4.3550542000      1.0000000000
 P 1 
   1       1.2019554000      1.0000000000
 P 1 
   1       0.3354196000      1.0000000000
 D 2 
   1       9.2146611000     -0.4661230638
   2       2.8435251000     -0.6600908911
 D 1 
   1       0.9955759000     -1.0000000000
 D 1 
   1       0.3649441000     -1.0000000000
 F 2 
   1       2.6420115000      0.5931563945
   2       0.7345613000      0.5931563945
 G 1 
   1       1.3931000000     -1.0000000000
  end;

 # Auxiliary/J basis set for element : S 
 NewAuxJGTO S 
 S 7 
   1    7399.0303145000      0.0295137551
   2    2710.1675859000      0.0559686311
   3    1034.3279062000      0.1764696370
   4     410.4645411000      0.3577969368
   5     168.9762502000      0.4299293578
   6      71.9687889000      0.1259148089
   7      31.6172683000     -0.0646025788
 S 1 
   1      14.2796836000      1.0000000000
 S 1 
   1       6.6060948000      1.0000000000
 S 1 
   1       3.1181477000      1.0000000000
 S 1 
   1       1.4954039000     -1.0000000000
 S 1 
   1       0.7254779000      1.0000000000
 S 1 
   1       0.3544216000      1.0000000000
 S 1 
   1       0.1735525000      1.0000000000
 P 2 
   1      12.6998799000      1.4059102813
   2       4.4295784000     -1.2124994202
 P 1 
   1       1.5232889000      1.0000000000
 P 1 
   1       0.5194667000     -1.0000000000
 P 1 
   1       0.1766547000     -1.0000000000
 D 3 
   1      16.8546461000      1.0295742104
   2       5.0810461000     -0.7461553923
   3       1.5102323000      0.8357028005
 D 1 
   1       0.4451331000      1.0000000000
 D 1 
   1       0.1308362000      1.0000000000
 F 2 
   1       1.0809860000      0.5572698934
   2       0.4161474000      0.5572698934
 G 1 
   1       0.6707100000     -1.0000000000
  end;

 # Auxiliary/J basis set for element : V 
 NewAuxJGTO V 
 S 12 
   1   11942.0842430000      0.0459866720
   2    2430.7110193000      0.1744615821
   3     841.0764301000      0.2900402792
   4     494.7508273000      0.1411212903
   5     291.0298903000      0.2660697186
   6     171.1940483000      0.0446365706
   7      59.2366916000     -0.0408204801
   8      34.8451117000      0.1394665381
   9      20.4971240000      0.2164746715
  10      12.0571314000      0.0864266611
  11       7.0924300000     -0.0568501658
  12       4.1720176000     -0.0126212852
 S 1 
   1       2.4541279000      1.0000000000
 S 1 
   1       1.4436046000      1.0000000000
 S 1 
   1       0.8491792000      1.0000000000
 S 1 
   1       0.2938336000      1.0000000000
 S 1 
   1       0.1728433000      1.0000000000
 S 1 
   1       0.1016725000      1.0000000000
 S 1 
   1       0.0598074000      1.0000000000
 P 1 
   1      16.7130979000     -1.0000000000
 P 1 
   1       4.7454037000     -1.0000000000
 P 1 
   1       1.3889998000      1.0000000000
 P 1 
   1       0.4142440000     -1.0000000000
 P 1 
   1       0.1243234000      1.0000000000
 D 1 
   1       7.7143225000      1.0000000000
 D 1 
   1       3.1170731000      1.0000000000
 D 1 
   1       1.2767950000     -1.0000000000
 D 1 
   1       0.5273386000      1.0000000000
 D 1 
   1       0.2184050000      1.0000000000
 F 2 
   1       3.1309344000     -1.0825667766
   2       1.0419780000      0.1809223232
 F 1 
   1       0.3559044000      1.0000000000
 G 1 
   1       8.7130110000      1.0000000000
 G 1 
   1       2.7493872000      1.0000000000
 G 1 
   1       0.8775089000      1.0000000000
  end;



           ************************************************************
           *        Program running with 6 parallel MPI-processes     *
           *              working on a common directory               *
           ************************************************************
------------------------------------------------------------------------------
                           ORCA GTO INTEGRAL CALCULATION
                           -- RI-GTO INTEGRALS CHOSEN --
------------------------------------------------------------------------------
------------------------------------------------------------------------------
                   ___                                                        
                  /   \      - P O W E R E D   B Y -                         
                 /     \                                                     
                 |  |  |   _    _      __       _____    __    __             
                 |  |  |  | |  | |    /  \     |  _  \  |  |  /  |          
                  \  \/   | |  | |   /    \    | | | |  |  | /  /          
                 / \  \   | |__| |  /  /\  \   | |_| |  |  |/  /          
                |  |  |   |  __  | /  /__\  \  |    /   |      \           
                |  |  |   | |  | | |   __   |  |    \   |  |\   \          
                \     /   | |  | | |  |  |  |  | |\  \  |  | \   \       
                 \___/    |_|  |_| |__|  |__|  |_| \__\ |__|  \__/        
                                                                              
                      - O R C A' S   B I G   F R I E N D -                    
                                      &                                       
                       - I N T E G R A L  F E E D E R -                       
                                                                              
 v1 FN, 2020, v2 2021                                                         
------------------------------------------------------------------------------


Reading SHARK input file input_48.SHARKINP.tmp ... ok
----------------------
SHARK INTEGRAL PACKAGE
----------------------

Number of atoms                             ...     40
Number of basis functions                   ...    681
Number of shells                            ...    331
Maximum angular momentum                    ...      3
Integral batch strategy                     ... SHARK/LIBINT Hybrid
RI-J (if used) integral strategy            ... SPLIT-RIJ (Revised 2003 algorithm where possible)
Printlevel                                  ...      1
Contraction scheme used                     ... SEGMENTED contraction
Coulomb Range Separation                    ... NOT USED
Exchange Range Separation                   ... NOT USED
Finite Nucleus Model                        ... NOT USED
Auxiliary Coulomb fitting basis             ... AVAILABLE
   # of basis functions in Aux-J            ...   1568
   # of shells in Aux-J                     ...    512
   Maximum angular momentum in Aux-J        ...      4
Auxiliary J/K fitting basis                 ... NOT available
Auxiliary Correlation fitting basis         ... NOT available
Auxiliary 'external' fitting basis          ... NOT available
Integral threshold                          ...     1.000000e-10
Primitive cut-off                           ...     1.000000e-11
Primitive pair pre-selection threshold      ...     1.000000e-11

Calculating pre-screening integrals         ... done (  0.1 sec) Dimension = 331
Organizing shell pair data                  ... done (  0.1 sec)
Shell pair information
Total number of shell pairs                 ...     54946
Shell pairs after pre-screening             ...     22750
Total number of primitive shell pairs       ...    221635
Primitive shell pairs kept                  ...     55489
          la=0 lb=0:   6429 shell pairs
          la=1 lb=0:   9108 shell pairs
          la=1 lb=1:   3207 shell pairs
          la=2 lb=0:   2143 shell pairs
          la=2 lb=1:   1541 shell pairs
          la=2 lb=2:    196 shell pairs
          la=3 lb=0:     57 shell pairs
          la=3 lb=1:     56 shell pairs
          la=3 lb=2:     12 shell pairs
          la=3 lb=3:      1 shell pairs

Calculating one electron integrals          ... done (  0.0 sec)
Calculating RI/J V-Matrix + Cholesky decomp.... done (  0.2 sec)
Calculating Nuclear repulsion               ... done (  0.0 sec) ENN=   5080.871896324985 Eh

SHARK setup successfully completed in   0.7 seconds

Maximum memory used throughout the entire GTOINT-calculation: 41.9 MB


           ************************************************************
           *        Program running with 6 parallel MPI-processes     *
           *              working on a common directory               *
           ************************************************************
-------------------------------------------------------------------------------
                                 ORCA SCF
-------------------------------------------------------------------------------

------------
SCF SETTINGS
------------
Hamiltonian:
 Density Functional     Method          .... DFT(GTOs)
 Exchange Functional    Exchange        .... B88
   X-Alpha parameter    XAlpha          ....  0.666667
   Becke's b parameter  XBeta           ....  0.004200
 Correlation Functional Correlation     .... LYP
 LDA part of GGA corr.  LDAOpt          .... VWN-5
 Gradients option       PostSCFGGA      .... off
 Hybrid DFT is turned on
   Fraction HF Exchange ScalHFX         ....  0.200000
   Scaling of DF-GGA-X  ScalDFX         ....  0.720000
   Scaling of DF-GGA-C  ScalDFC         ....  0.810000
   Scaling of DF-LDA-C  ScalLDAC        ....  1.000000
   Perturbative correction              ....  0.000000
   Density functional embedding theory  .... OFF
   NL short-range parameter             ....  4.800000
 RI-approximation to the Coulomb term is turned on
   Number of AuxJ basis functions       .... 1568
   RIJ-COSX (HFX calculated with COS-X)).... on


General Settings:
 Integral files         IntName         .... input_48
 Hartree-Fock type      HFTyp           .... UHF
 Total Charge           Charge          ....   -2
 Multiplicity           Mult            ....    2
 Number of Electrons    NEL             ....  321
 Basis Dimension        Dim             ....  681
 Nuclear Repulsion      ENuc            ....   5080.8718963250 Eh

Convergence Acceleration:
 DIIS                   CNVDIIS         .... on
   Start iteration      DIISMaxIt       ....    12
   Startup error        DIISStart       ....  0.200000
   # of expansion vecs  DIISMaxEq       ....     5
   Bias factor          DIISBfac        ....   1.050
   Max. coefficient     DIISMaxC        ....  10.000
 Trust-Rad. Augm. Hess. CNVTRAH         .... auto
   Auto Start mean grad. ratio tolernc. ....  1.125000
   Auto Start start iteration           ....    20
   Auto Start num. interpolation iter.  ....    10
   Max. Number of Micro iterations      ....    16
   Max. Number of Macro iterations      .... Maxiter - #DIIS iter
   Number of Davidson start vectors     ....     2
   Converg. threshold I  (grad. norm)   ....   5.000e-05
   Converg. threshold II (energy diff.) ....   1.000e-06
   Grad. Scal. Fac. for Micro threshold ....   0.100
   Minimum threshold for Micro iter.    ....   0.010
   NR start threshold (gradient norm)   ....   0.001
   Initial trust radius                 ....   0.400
   Minimum AH scaling param. (alpha)    ....   1.000
   Maximum AH scaling param. (alpha)    .... 1000.000
   Orbital update algorithm             .... Taylor
   White noise on init. David. guess    .... on
   Maximum white noise                  ....   0.010
   Quad. conv. algorithm                .... NR
 SOSCF                  CNVSOSCF        .... off
 Level Shifting         CNVShift        .... on
   Level shift para.    LevelShift      ....    0.2500
   Turn off err/grad.   ShiftErr        ....    0.0010
 Zerner damping         CNVZerner       .... off
 Static damping         CNVDamp         .... on
   Fraction old density DampFac         ....    0.7000
   Max. Damping (<1)    DampMax         ....    0.9800
   Min. Damping (>=0)   DampMin         ....    0.0000
   Turn off err/grad.   DampErr         ....    0.1000
 Fernandez-Rico         CNVRico         .... off

SCF Procedure:
 Maximum # iterations   MaxIter         ....   125
 SCF integral mode      SCFMode         .... Direct
   Integral package                     .... SHARK and LIBINT hybrid scheme
 Reset frequency        DirectResetFreq ....    20
 Integral Threshold     Thresh          ....  1.000e-10 Eh
 Primitive CutOff       TCut            ....  1.000e-11 Eh

Convergence Tolerance:
 Convergence Check Mode ConvCheckMode   .... Total+1el-Energy
 Convergence forced     ConvForced      .... 0
 Energy Change          TolE            ....  1.000e-06 Eh
 1-El. energy change                    ....  1.000e-03 Eh
 DIIS Error             TolErr          ....  1.000e-06


Diagonalization of the overlap matrix:
Smallest eigenvalue                        ... 8.367e-05
Time for diagonalization                   ...    0.271 sec
Threshold for overlap eigenvalues          ... 1.000e-08
Number of eigenvalues below threshold      ... 0
Time for construction of square roots      ...    0.158 sec
Total time needed                          ...    0.433 sec

Time for model grid setup =    0.390 sec

------------------------------
INITIAL GUESS: MODEL POTENTIAL
------------------------------
Loading Hartree-Fock densities                     ... done
Calculating cut-offs                               ... done
Initializing the effective Hamiltonian             ... done
Setting up the integral package (SHARK)            ... done
Starting the Coulomb interaction                   ... done (   0.5 sec)
Reading the grid                                   ... done
Mapping shells                                     ... done
Starting the XC term evaluation                    ... done (   0.2 sec)
  promolecular density results
     # of electrons  =    318.998365995
     EX              =   -428.334010689
     EC              =    -12.544569952
     EX+EC           =   -440.878580641
Transforming the Hamiltonian                       ... done (   0.2 sec)
Diagonalizing the Hamiltonian                      ... done (   0.2 sec)
Back transforming the eigenvectors                 ... done (   0.1 sec)
Now organizing SCF variables                       ... done
                      ------------------
                      INITIAL GUESS DONE (   1.5 sec)
                      ------------------
-------------------
DFT GRID GENERATION
-------------------

General Integration Accuracy     IntAcc      ... 4.388
Radial Grid Type                 RadialGrid  ... OptM3 with GC (2021)
Angular Grid (max. ang.)         AngularGrid ... 4 (Lebedev-302)
Angular grid pruning method      GridPruning ... 4 (adaptive)
Weight generation scheme         WeightScheme... Becke
Basis function cutoff            BFCut       ... 1.0000e-10
Integration weight cutoff        WCut        ... 1.0000e-14
Angular grids for H and He will be reduced by one unit
Partially contracted basis set               ... off
Rotationally invariant grid construction     ... off

Total number of grid points                  ...   237174
Total number of batches                      ...     3728
Average number of points per batch           ...       63
Average number of grid points per atom       ...     5929
Time for grid setup =    1.910 sec

--------------------
COSX GRID GENERATION
--------------------

GRIDX 1
-------
General Integration Accuracy     IntAcc      ... 3.816
Radial Grid Type                 RadialGrid  ... OptM3 with GC (2021)
Angular Grid (max. ang.)         AngularGrid ... 1 (Lebedev-50)
Angular grid pruning method      GridPruning ... 4 (adaptive)
Weight generation scheme         WeightScheme... Becke
Basis function cutoff            BFCut       ... 1.0000e-10
Integration weight cutoff        WCut        ... 1.0000e-14
Angular grids for H and He will be reduced by one unit
Partially contracted basis set               ... on
Rotationally invariant grid construction     ... off

Total number of grid points                  ...    29166
Total number of batches                      ...      480
Average number of points per batch           ...       60
Average number of grid points per atom       ...      729
UseSFitting                                  ... on

GRIDX 2
-------
General Integration Accuracy     IntAcc      ... 4.020
Radial Grid Type                 RadialGrid  ... OptM3 with GC (2021)
Angular Grid (max. ang.)         AngularGrid ... 2 (Lebedev-110)
Angular grid pruning method      GridPruning ... 4 (adaptive)
Weight generation scheme         WeightScheme... Becke
Basis function cutoff            BFCut       ... 1.0000e-10
Integration weight cutoff        WCut        ... 1.0000e-14
Angular grids for H and He will be reduced by one unit
Partially contracted basis set               ... on
Rotationally invariant grid construction     ... off

Total number of grid points                  ...    64009
Total number of batches                      ...     1021
Average number of points per batch           ...       62
Average number of grid points per atom       ...     1600
UseSFitting                                  ... on

GRIDX 3
-------
General Integration Accuracy     IntAcc      ... 4.338
Radial Grid Type                 RadialGrid  ... OptM3 with GC (2021)
Angular Grid (max. ang.)         AngularGrid ... 3 (Lebedev-194)
Angular grid pruning method      GridPruning ... 4 (adaptive)
Weight generation scheme         WeightScheme... Becke
Basis function cutoff            BFCut       ... 1.0000e-10
Integration weight cutoff        WCut        ... 1.0000e-14
Angular grids for H and He will be reduced by one unit
Partially contracted basis set               ... on
Rotationally invariant grid construction     ... off

Total number of grid points                  ...   147128
Total number of batches                      ...     2316
Average number of points per batch           ...       63
Average number of grid points per atom       ...     3678
UseSFitting                                  ... on

Time for X-Grid setup             =    2.161 sec

--------------
SCF ITERATIONS
--------------
ITER       Energy         Delta-E        Max-DP      RMS-DP      [F,P]     Damp
               ***  Starting incremental Fock matrix formation  ***
  0  -6336.8555857773   0.000000000000 0.07250760  0.00069252  0.2319087 0.7000
  1  -6337.1922917828  -0.336706005511 0.10468216  0.00063383  0.1558544 0.7000
                               ***Turning on DIIS***
  2  -6337.3578002770  -0.165508494224 0.05406067  0.00033949  0.1090720 0.7000
  3  -6337.4487162089  -0.090915931862 0.05494209  0.00056737  0.0771953 0.0000
  4  -6337.6695846732  -0.220868464381 0.07718437  0.00034610  0.0131533 0.0000
  5  -6337.6754859002  -0.005901226939 0.01319070  0.00008549  0.0106468 0.0000
  6  -6337.6768918382  -0.001405938026 0.00293426  0.00003946  0.0043450 0.0000
  7  -6337.6773208711  -0.000429032918 0.00190807  0.00002444  0.0015101 0.0000
  8  -6337.6775186081  -0.000197736976 0.00277876  0.00002039  0.0015585 0.0000
  9  -6337.6776480586  -0.000129450492 0.00270956  0.00001680  0.0011021 0.0000
 10  -6337.6777318059  -0.000083747332 0.00549682  0.00004037  0.0006503 0.0000
               *** Restarting incremental Fock matrix formation ***
                                   *** Resetting DIIS ***
 11  -6337.6778010163  -0.000069210336 0.00299131  0.00001342  0.0008407 0.0000
 12  -6337.6777666282   0.000034388079 0.00043132  0.00000293  0.0026158 0.0000
 13  -6337.6778046838  -0.000038055603 0.00079803  0.00000513  0.0008890 0.0000
 14  -6337.6778108062  -0.000006122410 0.00024571  0.00000252  0.0002578 0.0000
 15  -6337.6778116303  -0.000000824121 0.00036077  0.00000165  0.0001679 0.0000
 16  -6337.6778122487  -0.000000618434 0.00010558  0.00000100  0.0000971 0.0000
 17  -6337.6778126008  -0.000000352052 0.00011709  0.00000080  0.0000822 0.0000
 18  -6337.6778126506  -0.000000049848 0.00004518  0.00000037  0.0000158 0.0000
 19  -6337.6778125485   0.000000102167 0.00011077  0.00000043  0.0000199 0.0000
                 **** Energy Check signals convergence ****

               *****************************************************
               *                     SUCCESS                       *
               *           SCF CONVERGED AFTER  20 CYCLES          *
               *****************************************************

Old exchange energy                            =    -85.947050991 Eh
New exchange energy                            =    -85.947044859 Eh
Exchange energy change after final integration =      0.000006131 Eh
Total energy after final integration           =  -6337.677806502 Eh
Final COS-X integration done in                =    28.630 sec

----------------
TOTAL SCF ENERGY
----------------

Total Energy       :        -6337.67780650 Eh         -172456.98066 eV

Components:
Nuclear Repulsion  :         5080.87189632 Eh          138257.55318 eV
Electronic Energy  :       -11418.54970283 Eh         -310714.53384 eV
One Electron Energy:       -18931.59362954 Eh         -515154.85263 eV
Two Electron Energy:         7513.04392672 Eh          204440.31879 eV
Max COSX asymmetry :            0.00000153 Eh               0.00004 eV

Virial components:
Potential Energy   :       -12659.38761207 Eh         -344479.44992 eV
Kinetic Energy     :         6321.70980557 Eh          172022.46926 eV
Virial Ratio       :            2.00252590


DFT components:
N(Alpha)           :      161.000016362797 electrons
N(Beta)            :      160.000015907128 electrons
N(Total)           :      321.000032269925 electrons
E(X)               :     -341.533620138849 Eh       
E(C)               :      -14.728532891598 Eh       
E(XC)              :     -356.262153030446 Eh       
DFET-embed. en.    :        0.000000000000 Eh       

---------------
SCF CONVERGENCE
---------------

  Last Energy change         ...   -8.5341e-08  Tolerance :   1.0000e-06
  Last MAX-Density change    ...    0.0000e+00  Tolerance :   1.0000e-05
  Last RMS-Density change    ...    0.0000e+00  Tolerance :   1.0000e-06
  Last DIIS Error            ...    1.3176e-05  Tolerance :   1.0000e-06

             **** THE GBW FILE WAS UPDATED (input_48.gbw) ****
             **** DENSITY input_48.scfp WAS UPDATED ****
             **** ENERGY FILE WAS UPDATED (input_48.en.tmp) ****
----------------------
UHF SPIN CONTAMINATION
----------------------

Warning: in a DFT calculation there is little theoretical justification to 
         calculate <S**2> as in Hartree-Fock theory. We will do it anyways
         but you should keep in mind that the values have only limited relevance

Expectation value of <S**2>     :     0.765662
Ideal value S*(S+1) for S=0.5   :     0.750000
Deviation                       :     0.015662

             **** THE GBW FILE WAS UPDATED (input_48.gbw) ****
             **** DENSITY input_48.scfp WAS UPDATED ****
----------------
ORBITAL ENERGIES
----------------
                 SPIN UP ORBITALS
  NO   OCC          E(Eh)            E(eV) 
   0   1.0000    -196.678557     -5351.8956 
   1   1.0000     -88.732332     -2414.5295 
   2   1.0000     -88.732190     -2414.5256 
   3   1.0000     -88.731564     -2414.5086 
   4   1.0000     -88.731453     -2414.5056 
   5   1.0000     -88.731062     -2414.4950 
   6   1.0000     -88.731006     -2414.4934 
   7   1.0000     -88.725854     -2414.3532 
   8   1.0000     -88.725703     -2414.3491 
   9   1.0000     -88.642758     -2412.0921 
  10   1.0000     -88.642569     -2412.0869 
  11   1.0000     -88.642345     -2412.0808 
  12   1.0000     -88.642234     -2412.0778 
  13   1.0000     -22.053946      -600.1184 
  14   1.0000     -18.893770      -514.1256 
  15   1.0000     -18.560349      -505.0528 
  16   1.0000     -18.555253      -504.9141 
  17   1.0000     -18.555135      -504.9109 
  18   1.0000     -10.075522      -274.1689 
  19   1.0000     -10.067880      -273.9610 
  20   1.0000     -10.063282      -273.8358 
  21   1.0000     -10.063226      -273.8343 
  22   1.0000     -10.062933      -273.8263 
  23   1.0000     -10.062905      -273.8256 
  24   1.0000     -10.058679      -273.7106 
  25   1.0000     -10.050239      -273.4809 
  26   1.0000     -10.046449      -273.3778 
  27   1.0000     -10.040821      -273.2246 
  28   1.0000     -10.019657      -272.6487 
  29   1.0000     -10.018845      -272.6266 
  30   1.0000     -10.017221      -272.5824 
  31   1.0000     -10.016209      -272.5549 
  32   1.0000      -7.785351      -211.8502 
  33   1.0000      -7.785256      -211.8476 
  34   1.0000      -7.785026      -211.8413 
  35   1.0000      -7.784966      -211.8397 
  36   1.0000      -7.784929      -211.8387 
  37   1.0000      -7.784887      -211.8375 
  38   1.0000      -7.781937      -211.7573 
  39   1.0000      -7.781858      -211.7551 
  40   1.0000      -7.697501      -209.4597 
  41   1.0000      -7.697257      -209.4530 
  42   1.0000      -7.697138      -209.4498 
  43   1.0000      -7.696681      -209.4373 
  44   1.0000      -5.750330      -156.4744 
  45   1.0000      -5.750230      -156.4717 
  46   1.0000      -5.750123      -156.4688 
  47   1.0000      -5.749982      -156.4650 
  48   1.0000      -5.749810      -156.4603 
  49   1.0000      -5.749778      -156.4594 
  50   1.0000      -5.746850      -156.3797 
  51   1.0000      -5.746760      -156.3773 
  52   1.0000      -5.746603      -156.3730 
  53   1.0000      -5.746472      -156.3695 
  54   1.0000      -5.746466      -156.3693 
  55   1.0000      -5.746375      -156.3668 
  56   1.0000      -5.745360      -156.3392 
  57   1.0000      -5.745312      -156.3379 
  58   1.0000      -5.741946      -156.2463 
  59   1.0000      -5.741853      -156.2438 
  60   1.0000      -5.740868      -156.2170 
  61   1.0000      -5.740841      -156.2162 
  62   1.0000      -5.740167      -156.1979 
  63   1.0000      -5.740064      -156.1951 
  64   1.0000      -5.739874      -156.1899 
  65   1.0000      -5.739734      -156.1861 
  66   1.0000      -5.738067      -156.1407 
  67   1.0000      -5.737997      -156.1388 
  68   1.0000      -5.662714      -154.0903 
  69   1.0000      -5.662489      -154.0842 
  70   1.0000      -5.662417      -154.0822 
  71   1.0000      -5.661951      -154.0695 
  72   1.0000      -5.656098      -153.9103 
  73   1.0000      -5.655856      -153.9037 
  74   1.0000      -5.655797      -153.9021 
  75   1.0000      -5.655348      -153.8898 
  76   1.0000      -5.654850      -153.8763 
  77   1.0000      -5.654565      -153.8685 
  78   1.0000      -5.654482      -153.8663 
  79   1.0000      -5.654016      -153.8536 
  80   1.0000      -2.447617       -66.6031 
  81   1.0000      -1.488859       -40.5139 
  82   1.0000      -1.477324       -40.2000 
  83   1.0000      -1.476461       -40.1765 
  84   1.0000      -0.725603       -19.7447 
  85   1.0000      -0.714212       -19.4347 
  86   1.0000      -0.689514       -18.7626 
  87   1.0000      -0.687516       -18.7083 
  88   1.0000      -0.653277       -17.7766 
  89   1.0000      -0.636085       -17.3087 
  90   1.0000      -0.633780       -17.2460 
  91   1.0000      -0.618003       -16.8167 
  92   1.0000      -0.604745       -16.4559 
  93   1.0000      -0.585790       -15.9402 
  94   1.0000      -0.580252       -15.7895 
  95   1.0000      -0.578376       -15.7384 
  96   1.0000      -0.577360       -15.7108 
  97   1.0000      -0.497907       -13.5488 
  98   1.0000      -0.497745       -13.5443 
  99   1.0000      -0.496156       -13.5011 
 100   1.0000      -0.495903       -13.4942 
 101   1.0000      -0.481895       -13.1130 
 102   1.0000      -0.480035       -13.0624 
 103   1.0000      -0.448657       -12.2086 
 104   1.0000      -0.445621       -12.1260 
 105   1.0000      -0.417327       -11.3561 
 106   1.0000      -0.413101       -11.2410 
 107   1.0000      -0.355205        -9.6656 
 108   1.0000      -0.354275        -9.6403 
 109   1.0000      -0.327908        -8.9228 
 110   1.0000      -0.327556        -8.9132 
 111   1.0000      -0.325539        -8.8584 
 112   1.0000      -0.320582        -8.7235 
 113   1.0000      -0.305647        -8.3171 
 114   1.0000      -0.305175        -8.3042 
 115   1.0000      -0.293917        -7.9979 
 116   1.0000      -0.272772        -7.4225 
 117   1.0000      -0.259685        -7.0664 
 118   1.0000      -0.258281        -7.0282 
 119   1.0000      -0.255725        -6.9586 
 120   1.0000      -0.251425        -6.8416 
 121   1.0000      -0.244525        -6.6539 
 122   1.0000      -0.233752        -6.3607 
 123   1.0000      -0.231865        -6.3094 
 124   1.0000      -0.222682        -6.0595 
 125   1.0000      -0.221793        -6.0353 
 126   1.0000      -0.218451        -5.9443 
 127   1.0000      -0.216317        -5.8863 
 128   1.0000      -0.214327        -5.8321 
 129   1.0000      -0.196038        -5.3345 
 130   1.0000      -0.189325        -5.1518 
 131   1.0000      -0.188716        -5.1352 
 132   1.0000      -0.184724        -5.0266 
 133   1.0000      -0.176404        -4.8002 
 134   1.0000      -0.164730        -4.4825 
 135   1.0000      -0.153974        -4.1898 
 136   1.0000      -0.147340        -4.0093 
 137   1.0000      -0.141784        -3.8581 
 138   1.0000      -0.136957        -3.7268 
 139   1.0000      -0.129305        -3.5186 
 140   1.0000      -0.128494        -3.4965 
 141   1.0000      -0.119158        -3.2425 
 142   1.0000      -0.117007        -3.1839 
 143   1.0000      -0.112323        -3.0565 
 144   1.0000      -0.101429        -2.7600 
 145   1.0000      -0.099223        -2.7000 
 146   1.0000      -0.097749        -2.6599 
 147   1.0000      -0.093920        -2.5557 
 148   1.0000      -0.077759        -2.1159 
 149   1.0000      -0.067898        -1.8476 
 150   1.0000      -0.066200        -1.8014 
 151   1.0000      -0.055903        -1.5212 
 152   1.0000      -0.049758        -1.3540 
 153   1.0000      -0.039911        -1.0860 
 154   1.0000      -0.037536        -1.0214 
 155   1.0000      -0.030120        -0.8196 
 156   1.0000      -0.027863        -0.7582 
 157   1.0000      -0.022522        -0.6129 
 158   1.0000      -0.018516        -0.5039 
 159   1.0000       0.018906         0.5145 
 160   1.0000       0.038838         1.0568 
 161   0.0000       0.137185         3.7330 
 162   0.0000       0.139187         3.7875 
 163   0.0000       0.161366         4.3910 
 164   0.0000       0.163889         4.4596 
 165   0.0000       0.166476         4.5300 
 166   0.0000       0.169021         4.5993 
 167   0.0000       0.170826         4.6484 
 168   0.0000       0.174071         4.7367 
 169   0.0000       0.174542         4.7495 
 170   0.0000       0.176091         4.7917 
 171   0.0000       0.176697         4.8082 
 172   0.0000       0.193569         5.2673 
 173   0.0000       0.193849         5.2749 
 174   0.0000       0.198947         5.4136 
 175   0.0000       0.199983         5.4418 
 176   0.0000       0.204648         5.5688 
 177   0.0000       0.209085         5.6895 
 178   0.0000       0.211461         5.7541 
 179   0.0000       0.211776         5.7627 
 180   0.0000       0.214440         5.8352 
 181   0.0000       0.215527         5.8648 
 182   0.0000       0.217936         5.9303 
 183   0.0000       0.224271         6.1027 
 184   0.0000       0.227860         6.2004 
 185   0.0000       0.230195         6.2639 
 186   0.0000       0.231512         6.2998 
 187   0.0000       0.236463         6.4345 
 188   0.0000       0.239725         6.5232 
 189   0.0000       0.242201         6.5906 
 190   0.0000       0.247223         6.7273 
 191   0.0000       0.250726         6.8226 
 192   0.0000       0.254394         6.9224 
 193   0.0000       0.260422         7.0864 
 194   0.0000       0.266830         7.2608 
 195   0.0000       0.269141         7.3237 
 196   0.0000       0.272060         7.4031 
 197   0.0000       0.272855         7.4248 
 198   0.0000       0.280129         7.6227 
 199   0.0000       0.281711         7.6658 
 200   0.0000       0.287723         7.8294 
 201   0.0000       0.291666         7.9366 
 202   0.0000       0.303398         8.2559 
 203   0.0000       0.308136         8.3848 
 204   0.0000       0.311482         8.4758 
 205   0.0000       0.317818         8.6483 
 206   0.0000       0.326389         8.8815 
 207   0.0000       0.331090         9.0094 
 208   0.0000       0.334934         9.1140 
 209   0.0000       0.344302         9.3689 
 210   0.0000       0.346865         9.4387 
 211   0.0000       0.348641         9.4870 
 212   0.0000       0.354109         9.6358 
 213   0.0000       0.354562         9.6481 
 214   0.0000       0.362666         9.8687 
 215   0.0000       0.372988        10.1495 
 216   0.0000       0.373484        10.1630 
 217   0.0000       0.379414        10.3244 
 218   0.0000       0.381775        10.3886 
 219   0.0000       0.386468        10.5163 
 220   0.0000       0.389368        10.5953 
 221   0.0000       0.390271        10.6198 
 222   0.0000       0.392096        10.6695 
 223   0.0000       0.397121        10.8062 
 224   0.0000       0.401528        10.9261 
 225   0.0000       0.402726        10.9587 
 226   0.0000       0.403494        10.9796 
 227   0.0000       0.411758        11.2045 
 228   0.0000       0.414418        11.2769 
 229   0.0000       0.421604        11.4724 
 230   0.0000       0.423273        11.5178 
 231   0.0000       0.428935        11.6719 
 232   0.0000       0.430817        11.7231 
 233   0.0000       0.435107        11.8399 
 234   0.0000       0.436968        11.8905 
 235   0.0000       0.440730        11.9929 
 236   0.0000       0.446494        12.1497 
 237   0.0000       0.451314        12.2809 
 238   0.0000       0.456369        12.4184 
 239   0.0000       0.464216        12.6319 
 240   0.0000       0.466667        12.6987 
 241   0.0000       0.470103        12.7922 
 242   0.0000       0.470398        12.8002 
 243   0.0000       0.470939        12.8149 
 244   0.0000       0.473239        12.8775 
 245   0.0000       0.479433        13.0460 
 246   0.0000       0.481329        13.0976 
 247   0.0000       0.481513        13.1026 
 248   0.0000       0.484366        13.1803 
 249   0.0000       0.492821        13.4103 
 250   0.0000       0.496214        13.5027 
 251   0.0000       0.497505        13.5378 
 252   0.0000       0.504919        13.7395 
 253   0.0000       0.506035        13.7699 
 254   0.0000       0.512276        13.9398 
 255   0.0000       0.513328        13.9684 
 256   0.0000       0.516494        14.0545 
 257   0.0000       0.519443        14.1348 
 258   0.0000       0.524580        14.2745 
 259   0.0000       0.525903        14.3106 
 260   0.0000       0.526784        14.3345 
 261   0.0000       0.527864        14.3639 
 262   0.0000       0.531312        14.4577 
 263   0.0000       0.532051        14.4778 
 264   0.0000       0.536205        14.5909 
 265   0.0000       0.537081        14.6147 
 266   0.0000       0.541356        14.7310 
 267   0.0000       0.546599        14.8737 
 268   0.0000       0.547383        14.8951 
 269   0.0000       0.552657        15.0386 
 270   0.0000       0.555566        15.1177 
 271   0.0000       0.556192        15.1347 
 272   0.0000       0.556390        15.1401 
 273   0.0000       0.563107        15.3229 
 274   0.0000       0.567641        15.4463 
 275   0.0000       0.571377        15.5479 
 276   0.0000       0.572238        15.5714 
 277   0.0000       0.574015        15.6197 
 278   0.0000       0.579711        15.7747 
 279   0.0000       0.581707        15.8290 
 280   0.0000       0.582026        15.8377 
 281   0.0000       0.588427        16.0119 
 282   0.0000       0.592810        16.1312 
 283   0.0000       0.595968        16.2171 
 284   0.0000       0.597345        16.2546 
 285   0.0000       0.606309        16.4985 
 286   0.0000       0.607253        16.5242 
 287   0.0000       0.616466        16.7749 
 288   0.0000       0.616916        16.7871 
 289   0.0000       0.617769        16.8104 
 290   0.0000       0.620547        16.8859 
 291   0.0000       0.623954        16.9787 
 292   0.0000       0.628562        17.1040 
 293   0.0000       0.633729        17.2446 
 294   0.0000       0.635463        17.2918 
 295   0.0000       0.642045        17.4709 
 296   0.0000       0.643437        17.5088 
 297   0.0000       0.646424        17.5901 
 298   0.0000       0.653668        17.7872 
 299   0.0000       0.660385        17.9700 
 300   0.0000       0.660846        17.9825 
 301   0.0000       0.676190        18.4001 
 302   0.0000       0.679747        18.4969 
 303   0.0000       0.696010        18.9394 
 304   0.0000       0.701671        19.0934 
 305   0.0000       0.711592        19.3634 
 306   0.0000       0.722315        19.6552 
 307   0.0000       0.724430        19.7127 
 308   0.0000       0.729799        19.8589 
 309   0.0000       0.742649        20.2085 
 310   0.0000       0.744978        20.2719 
 311   0.0000       0.749870        20.4050 
 312   0.0000       0.767341        20.8804 
 313   0.0000       0.771380        20.9903 
 314   0.0000       0.773374        21.0446 
 315   0.0000       0.782237        21.2858 
 316   0.0000       0.783371        21.3166 
 317   0.0000       0.786266        21.3954 
 318   0.0000       0.801342        21.8056 
 319   0.0000       0.815107        22.1802 
 320   0.0000       0.822311        22.3762 
 321   0.0000       0.824727        22.4420 
 322   0.0000       0.830075        22.5875 
 323   0.0000       0.832843        22.6628 
 324   0.0000       0.843959        22.9653 
 325   0.0000       0.849213        23.1083 
 326   0.0000       0.850483        23.1428 
 327   0.0000       0.853955        23.2373 
 328   0.0000       0.868235        23.6259 
 329   0.0000       0.868721        23.6391 
 330   0.0000       0.872152        23.7325 
 331   0.0000       0.873831        23.7782 
 332   0.0000       0.878222        23.8976 
 333   0.0000       0.880757        23.9666 
 334   0.0000       0.883285        24.0354 
 335   0.0000       0.889991        24.2179 
 336   0.0000       0.902195        24.5500 
 337   0.0000       0.911537        24.8042 
 338   0.0000       0.920430        25.0462 
 339   0.0000       0.925809        25.1925 
 340   0.0000       0.928535        25.2667 
 341   0.0000       0.935292        25.4506 
 342   0.0000       0.939834        25.5742 
 343   0.0000       0.941358        25.6156 
 344   0.0000       0.950441        25.8628 
 345   0.0000       0.952348        25.9147 
 346   0.0000       0.957729        26.0611 
 347   0.0000       0.959115        26.0988 
 348   0.0000       0.965892        26.2833 
 349   0.0000       0.976755        26.5788 
 350   0.0000       0.977901        26.6100 
 351   0.0000       0.981736        26.7144 
 352   0.0000       0.988013        26.8852 
 353   0.0000       1.008265        27.4363 
 354   0.0000       1.010942        27.5091 
 355   0.0000       1.011690        27.5295 
 356   0.0000       1.013339        27.5743 
 357   0.0000       1.015433        27.6313 
 358   0.0000       1.017433        27.6858 
 359   0.0000       1.025784        27.9130 
 360   0.0000       1.036483        28.2041 
 361   0.0000       1.038350        28.2549 
 362   0.0000       1.041034        28.3280 
 363   0.0000       1.049966        28.5710 
 364   0.0000       1.062247        28.9052 
 365   0.0000       1.066193        29.0126 
 366   0.0000       1.067314        29.0431 
 367   0.0000       1.069869        29.1126 
 368   0.0000       1.071559        29.1586 
 369   0.0000       1.081709        29.4348 
 370   0.0000       1.083733        29.4899 
 371   0.0000       1.085699        29.5434 
 372   0.0000       1.099395        29.9160 
 373   0.0000       1.106670        30.1140 
 374   0.0000       1.107180        30.1279 
 375   0.0000       1.114906        30.3381 
 376   0.0000       1.116706        30.3871 
 377   0.0000       1.119816        30.4718 
 378   0.0000       1.137802        30.9612 
 379   0.0000       1.143106        31.1055 
 380   0.0000       1.147350        31.2210 
 381   0.0000       1.165037        31.7023 
 382   0.0000       1.168066        31.7847 
 383   0.0000       1.169128        31.8136 
 384   0.0000       1.174485        31.9594 
 385   0.0000       1.201086        32.6832 
 386   0.0000       1.215424        33.0734 
 387   0.0000       1.230589        33.4860 
 388   0.0000       1.242189        33.8017 
 389   0.0000       1.243711        33.8431 
 390   0.0000       1.245141        33.8820 
 391   0.0000       1.249272        33.9944 
 392   0.0000       1.276722        34.7414 
 393   0.0000       1.287093        35.0236 
 394   0.0000       1.297863        35.3167 
 395   0.0000       1.306081        35.5403 
 396   0.0000       1.308978        35.6191 
 397   0.0000       1.310132        35.6505 
 398   0.0000       1.331912        36.2432 
 399   0.0000       1.333329        36.2817 
 400   0.0000       1.351850        36.7857 
 401   0.0000       1.354949        36.8700 
 402   0.0000       1.359794        37.0019 
 403   0.0000       1.396035        37.9881 
 404   0.0000       1.411622        38.4122 
 405   0.0000       1.421424        38.6789 
 406   0.0000       1.425808        38.7982 
 407   0.0000       1.427070        38.8325 
 408   0.0000       1.429516        38.8991 
 409   0.0000       1.443659        39.2840 
 410   0.0000       1.445379        39.3308 
 411   0.0000       1.447190        39.3800 
 412   0.0000       1.461067        39.7577 
 413   0.0000       1.484030        40.3825 
 414   0.0000       1.494167        40.6583 
 415   0.0000       1.496975        40.7348 
 416   0.0000       1.498271        40.7700 
 417   0.0000       1.500614        40.8338 
 418   0.0000       1.503672        40.9170 
[...]
Total number of batches                      ...      301
Average number of points per batch           ...       58
Average number of grid points per atom       ...      444

Memory available               ... 812.5 MB
Memory needed per perturbation ...  48.1 MB
Perturbations treated per batch... 3
Number of batches              ... 1
     CP-SCF ITERATION   0:   4.1507e-02 (   6.2 sec   0/  3 done)
     CP-SCF ITERATION   1:   1.7350e-03 (   6.4 sec   1/  3 done)
     CP-SCF ITERATION   2:   1.5927e-04 (   5.1 sec   3/  3 done)
                    *** THE CP-SCF HAS CONVERGED ***

Forming final perturbed densities           ... done
Transforming perturbed density to AO basis  ... done

 Raw HFC matrix (all values in MHz): 
 -----------------------------------
                -0.0120               0.0150               0.1069
                 0.0152              -0.0686               0.0265
                 0.1067               0.0261               0.1265

 A(FC)           0.0151               0.0151               0.0151
 A(SD)          -0.0854              -0.0887               0.1741
 A(ORB+DIA)      0.0005               0.0012              -0.0010    A(PC) =   0.0002
 A(ORB)          0.0005               0.0012              -0.0010    A(PC) =   0.0002
 A(DIA)         -0.0000              -0.0000               0.0000    A(PC) =  -0.0000
             ----------           ----------           ----------
 A(Tot)         -0.0698              -0.0724               0.1881    A(iso)=    0.0153
 Orientation: 
  X           0.8140876            0.3349250           -0.4744331
  Y           0.3182061           -0.9406453           -0.1180312
  Z          -0.4858048           -0.0548798           -0.8723428

Notes:  (1) The A matrix conforms to the "SAI" spin Hamiltonian convention.
        (2) Tensor is right-handed.

 Raw EFG matrix (all values in a.u.**-3):
 -----------------------------------
             0.2085       0.1043       0.0884
             0.1043      -0.1010       0.0333
             0.0884       0.0333      -0.1075

 V(El)       0.5131       0.8156      -1.3287
 V(Nuc)     -0.6394      -0.9536       1.5930
         ----------   ----------   ----------
 V(Tot)     -0.1263      -0.1380       0.2643 
 Orientation: 
  X       0.3721893    0.0644759   -0.9259147
  Y      -0.5813822   -0.7614369   -0.2867203
  Z      -0.7235122    0.6450245   -0.2459135

Note: Tensor is right-handed


 Quadrupole tensor eigenvalues (in MHz;Q= 0.0029 I=  1.0)
  e**2qQ            =     0.177452 MHz 
  e**2qQ/(4I*(2I-1))=     0.044363 MHz 
  eta               =     0.044192
  NOTE: the diagonal representation of the SH term I*Q*I = e**2qQ/(4I(2I-1))*[-(1-eta),-(1+eta),2]

 RHO(0)=      0.434824919 a.u.**-3

 -----------------------------------------------------------
 Nucleus  39H : A:ISTP=    1 I=  0.5 P=533.5514 MHz/au**3
                Q:ISTP=    2 I=  1.0 Q=  0.0029 barn     
 -----------------------------------------------------------
 Solving for nuclear perturbation:
Forming RHS of the CP-SCF equations         ... 
Calc. nucleus orbit integrals (SHARK)       ... done

------------------------------------------------------------------------------
                           ORCA CP-SCF CALCULATION
------------------------------------------------------------------------------

Input orbitals are from        ... input_48.gbw
Input Perturbation             ... input_48.pin.tmp
Wavefunction output            ... input_48.pout.tmp
Perturbation mode              ... Imaginary perturbation
Solver                         ... POPLE
Max. number of iterations      ... 64
Convergence tolerance          ... 1.000e-03
Integral handling              ... Direct
DFT GridXC                     ... 1
COSX GridX                     ... 1
COSX IntAccX                   ... 3.067
COSX Algorithm                 ... Auto
Number of perturbations        ... 3
Number of operators            ... 2
Orbital ranges used for CP-SCF:
 Operator 0:  Orbitals   0...160  to 161...680
 Operator 1:  Orbitals   0...159  to 160...680
Variables per perturbation     ... 167080
DFT calculation                         ... on
XC functional terms                     ... off
Hybrid DFT                              ... on
   Exchange mixing (SCF)                ...  0.200
   Exchange mixing (CP-SCF)             ...  0.200
   GGA exch. scaling(SCF)               ...  0.720
   GGA exch. scaling (CP-SCF)           ...  0.720
   GGA corr. scaling (SCF)              ...  0.810
   GGA corr. scaling (CP-SCF)           ...  0.810

CP-SCF GRID
-----------

General Integration Accuracy     IntAcc      ... 3.467
Radial Grid Type                 RadialGrid  ... OptM3 with GC (2021)
Angular Grid (max. ang.)         AngularGrid ... 1 (Lebedev-50)
Angular grid pruning method      GridPruning ... 4 (adaptive)
Weight generation scheme         WeightScheme... Becke
Basis function cutoff            BFCut       ... 1.0000e-10
Integration weight cutoff        WCut        ... 1.0000e-14
Angular grids for H and He will be reduced by one unit
Partially contracted basis set               ... off
Rotationally invariant grid construction     ... off

Total number of grid points                  ...    39303
Total number of batches                      ...      634
Average number of points per batch           ...       61
Average number of grid points per atom       ...      983

CP-SCF GRIDX
------------

General Integration Accuracy     IntAcc      ... 3.067
Radial Grid Type                 RadialGrid  ... OptM3 with GC (2021)
Angular Grid (max. ang.)         AngularGrid ... 1 (Lebedev-50)
Angular grid pruning method      GridPruning ... 4 (adaptive)
Weight generation scheme         WeightScheme... Becke
Basis function cutoff            BFCut       ... 1.0000e-10
Integration weight cutoff        WCut        ... 1.0000e-14
Angular grids for H and He will be reduced by one unit
Partially contracted basis set               ... on
Rotationally invariant grid construction     ... off

Total number of grid points                  ...    17756
Total number of batches                      ...      301
Average number of points per batch           ...       58
Average number of grid points per atom       ...      444

Memory available               ... 809.7 MB
Memory needed per perturbation ...  48.1 MB
Perturbations treated per batch... 3
Number of batches              ... 1
     CP-SCF ITERATION   0:   4.6830e-02 (   6.2 sec   0/  3 done)
     CP-SCF ITERATION   1:   1.9545e-03 (   6.4 sec   0/  3 done)
     CP-SCF ITERATION   2:   1.9643e-04 (   6.5 sec   3/  3 done)
                    *** THE CP-SCF HAS CONVERGED ***

Forming final perturbed densities           ... done
Transforming perturbed density to AO basis  ... done

 Raw HFC matrix (all values in MHz): 
 -----------------------------------
                -0.0923               0.0264               0.1381
                 0.0265              -0.1283               0.0666
                 0.1380               0.0662               0.1941

 A(FC)          -0.0092              -0.0092              -0.0092
 A(SD)          -0.1342              -0.1397               0.2739
 A(ORB+DIA)      0.0021               0.0008              -0.0018    A(PC) =   0.0003
 A(ORB)          0.0021               0.0008              -0.0018    A(PC) =   0.0004
 A(DIA)         -0.0000              -0.0001               0.0000    A(PC) =  -0.0000
             ----------           ----------           ----------
 A(Tot)         -0.1413              -0.1480               0.2629    A(iso)=   -0.0088
 Orientation: 
  X           0.1064939            0.9237142            0.3679824
  Y          -0.9827967            0.0416224            0.1799397
  Z           0.1508966           -0.3808144            0.9122558

Notes:  (1) The A matrix conforms to the "SAI" spin Hamiltonian convention.
        (2) Tensor is right-handed.

 Raw EFG matrix (all values in a.u.**-3):
 -----------------------------------
            -0.0697      -0.1063       0.0865
            -0.1063       0.0594      -0.1628
             0.0865      -0.1628       0.0104

 V(El)       0.6119       0.3567      -0.9686
 V(Nuc)     -0.7367      -0.4889       1.2256
         ----------   ----------   ----------
 V(Tot)     -0.1248      -0.1322       0.2570 
 Orientation: 
  X       0.7556962   -0.5285144   -0.3867761
  Y      -0.1310146   -0.7006261    0.7013974
  Z      -0.6416841   -0.4793700   -0.5987036

Note: Tensor is right-handed


 Quadrupole tensor eigenvalues (in MHz;Q= 0.0029 I=  1.0)
  e**2qQ            =     0.172576 MHz 
  e**2qQ/(4I*(2I-1))=     0.043144 MHz 
  eta               =     0.028892
  NOTE: the diagonal representation of the SH term I*Q*I = e**2qQ/(4I(2I-1))*[-(1-eta),-(1+eta),2]

 RHO(0)=      0.435438375 a.u.**-3

 -----------------------------------------------------------
 Nucleus   0V : A:ISTP=   51 I=  3.5 P=140.5173 MHz/au**3
                Q:ISTP=   51 I=  3.5 Q= -0.0430 barn     
 -----------------------------------------------------------
 Solving for nuclear perturbation:
Forming RHS of the CP-SCF equations         ... 
Calc. nucleus orbit integrals (SHARK)       ... done

------------------------------------------------------------------------------
                           ORCA CP-SCF CALCULATION
------------------------------------------------------------------------------

Input orbitals are from        ... input_48.gbw
Input Perturbation             ... input_48.pin.tmp
Wavefunction output            ... input_48.pout.tmp
Perturbation mode              ... Imaginary perturbation
Solver                         ... POPLE
Max. number of iterations      ... 64
Convergence tolerance          ... 1.000e-03
Integral handling              ... Direct
DFT GridXC                     ... 1
COSX GridX                     ... 1
COSX IntAccX                   ... 3.067
COSX Algorithm                 ... Auto
Number of perturbations        ... 3
Number of operators            ... 2
Orbital ranges used for CP-SCF:
 Operator 0:  Orbitals   0...160  to 161...680
 Operator 1:  Orbitals   0...159  to 160...680
Variables per perturbation     ... 167080
DFT calculation                         ... on
XC functional terms                     ... off
Hybrid DFT                              ... on
   Exchange mixing (SCF)                ...  0.200
   Exchange mixing (CP-SCF)             ...  0.200
   GGA exch. scaling(SCF)               ...  0.720
   GGA exch. scaling (CP-SCF)           ...  0.720
   GGA corr. scaling (SCF)              ...  0.810
   GGA corr. scaling (CP-SCF)           ...  0.810

CP-SCF GRID
-----------

General Integration Accuracy     IntAcc      ... 3.467
Radial Grid Type                 RadialGrid  ... OptM3 with GC (2021)
Angular Grid (max. ang.)         AngularGrid ... 1 (Lebedev-50)
Angular grid pruning method      GridPruning ... 4 (adaptive)
Weight generation scheme         WeightScheme... Becke
Basis function cutoff            BFCut       ... 1.0000e-10
Integration weight cutoff        WCut        ... 1.0000e-14
Angular grids for H and He will be reduced by one unit
Partially contracted basis set               ... off
Rotationally invariant grid construction     ... off

Total number of grid points                  ...    39303
Total number of batches                      ...      634
Average number of points per batch           ...       61
Average number of grid points per atom       ...      983

CP-SCF GRIDX
------------

General Integration Accuracy     IntAcc      ... 3.067
Radial Grid Type                 RadialGrid  ... OptM3 with GC (2021)
Angular Grid (max. ang.)         AngularGrid ... 1 (Lebedev-50)
Angular grid pruning method      GridPruning ... 4 (adaptive)
Weight generation scheme         WeightScheme... Becke
Basis function cutoff            BFCut       ... 1.0000e-10
Integration weight cutoff        WCut        ... 1.0000e-14
Angular grids for H and He will be reduced by one unit
Partially contracted basis set               ... on
Rotationally invariant grid construction     ... off

Total number of grid points                  ...    17756
Total number of batches                      ...      301
Average number of points per batch           ...       58
Average number of grid points per atom       ...      444

Memory available               ... 806.9 MB
Memory needed per perturbation ...  48.1 MB
Perturbations treated per batch... 3
Number of batches              ... 1
     CP-SCF ITERATION   0:   1.3352e+01 (   6.7 sec   0/  3 done)
     CP-SCF ITERATION   1:   1.8719e+00 (   6.4 sec   0/  3 done)
     CP-SCF ITERATION   2:   3.3918e-01 (   6.4 sec   0/  3 done)
     CP-SCF ITERATION   3:   3.9167e-02 (   6.4 sec   0/  3 done)
     CP-SCF ITERATION   4:   6.6617e-03 (   6.4 sec   0/  3 done)
     CP-SCF ITERATION   5:   1.9249e-03 (   6.4 sec   0/  3 done)
     CP-SCF ITERATION   6:   3.5253e-04 (   6.4 sec   3/  3 done)
                    *** THE CP-SCF HAS CONVERGED ***

Forming final perturbed densities           ... done
Transforming perturbed density to AO basis  ... done

 Raw HFC matrix (all values in MHz): 
 -----------------------------------
               -92.0289              54.2268               1.7807
                53.9953            -375.2384             -18.2626
                 1.5976             -17.1923             -89.0260

 A(FC)        -173.5457            -173.5457            -173.5457
 A(SD)          98.7282              92.7517            -191.4799
 A(ORB+DIA)     -6.8425              -7.5567             -21.2570    A(PC) = -11.8854
 A(ORB)         -6.8421              -7.5572             -21.2568    A(PC) = -11.8854
 A(DIA)         -0.0004               0.0005              -0.0002    A(PC) =  -0.0000
             ----------           ----------           ----------
 A(Tot)        -81.6600             -88.3506            -386.2826    A(iso)= -185.4311
 Orientation: 
  X           0.9511658           -0.2499011           -0.1811990
  Y           0.1907664            0.0143984            0.9815299
  Z          -0.2426764           -0.9681643            0.0613680

Notes:  (1) The A matrix conforms to the "SAI" spin Hamiltonian convention.
        (2) Tensor is right-handed.

 Raw EFG matrix (all values in a.u.**-3):
 -----------------------------------
            -0.0354      -0.0378      -0.0383
            -0.0378       0.2114      -0.0274
            -0.0383      -0.0274      -0.1760

 V(El)       0.2136      -0.4935       0.2799
 V(Nuc)     -0.2429       0.3045      -0.0617
         ----------   ----------   ----------
 V(Tot)     -0.0292      -0.1890       0.2182 
 Orientation: 
  X      -0.9550470    0.2618478   -0.1389995
  Y      -0.1191004    0.0904705    0.9887518
  Z       0.2714779    0.9608594   -0.0552174

Note: Tensor is right-handed


 Quadrupole tensor eigenvalues (in MHz;Q=-0.0430 I=  3.5)
  e**2qQ            =    -2.204505 MHz 
  e**2qQ/(4I*(2I-1))=    -0.026244 MHz 
  eta               =     0.732246
  NOTE: the diagonal representation of the SH term I*Q*I = e**2qQ/(4I(2I-1))*[-(1-eta),-(1+eta),2]

 RHO(0)=   8115.205166692 a.u.**-3


--------------------------------------------------------------------------------
----------------------------------------------------------------------------
                           ORCA EULER ANGLE PROGRAM
----------------------------------------------------------------------------

Only g-tensor available        -->  using g-tensor as reference tensor

Reference tensor               ...  g

g-tensor ordering              ...  |g_min> --> |gx>
                                    |g_mid> --> |gy>
                                    |g_max> --> |gz>

A- and EFG-tensor ordering     ...  the axes |Ax>, |Qx>, |Ay>, etc. are assigned
                                    such that the Euler rotation is minimal. You
                                    can find the respective eigenvalues as Ax,
                                    EFGx, Ay, etc. in the tables below.
                                    The relation of |Ax>, |Ay>,  etc. to Amin, Amid, etc.
                                    (as printed in the ORCA EPR/NMR CALCULATION Output)
                                    is obtained in the detailed printout.

Euler rotation around          ...  z - y - z
   First rotation              -->  by alpha around z
   Second rotation             -->  by beta around y'
   Third rotation              -->  by gamma around z''
   Positive / Negative angle   -->  clockwise / counterclockwise rotation

Plot EFG-tensors                    (-)
Plot HFC-tensors                    (-)
Detailed Printout                   (-)

-------------------------------------------------------------------------
          Euler rotation of hyperfine tensor to g-tensor
-------------------------------------------------------------------------

-------------------------------------------------------------------
 Atom  |   Alpha    Beta    Gamma   |   Ax       Ay       Az 
       |          [degrees]         |           [MHz]         
-------------------------------------------------------------------
 25H      147.8     11.3   -122.1      -0.13     0.25    -0.13
 26H      160.2     28.5   -142.7      -0.08     0.16    -0.08
 27H      -10.9     17.3     34.6      -0.07     0.13    -0.07
 28H      -30.9      6.2     45.3      -0.07     0.14    -0.07
 29H      -25.8     38.5     40.3      -0.08     0.16    -0.08
 30H      -84.5     12.6    110.6      -0.13     0.25    -0.13
 34H      113.3      2.6   -109.5      -0.14     0.26    -0.15
 35H      138.7     13.3   -139.6      -0.07     0.19    -0.07
 36H      -12.9     21.2      5.6      -0.06     0.13    -0.06
 37H     -170.6     34.3    175.9      -0.06     0.15    -0.06
 38H      -66.3     20.6     62.9      -0.07     0.19    -0.07
 39H     -118.9     14.9    122.6      -0.14     0.26    -0.15
  0V     -102.6      3.6     95.8    -386.28   -88.35   -81.66
-------------------------------------------------------------------


-------------------------------------------------------------------------------
    Euler rotation of Electric Field Gradient (EFG) tensor to g-tensor
-------------------------------------------------------------------------------

-------------------------------------------------------------------
 Atom  |   Alpha    Beta    Gamma  |   EFGx     EFGy     EFGz
       |          [degrees]        |         [a.u.**-3]       
-------------------------------------------------------------------
 25H       -8.3     35.9    -29.8     -0.15     0.29    -0.14
 26H     -139.5     41.4    107.9     -0.14    -0.15     0.29
 27H     -133.5      3.2    113.1      0.28    -0.15    -0.14
 28H     -151.1      3.1    114.1     -0.15     0.28    -0.14
 29H       41.8     35.2    -73.4     -0.14    -0.15     0.29
 30H      177.1     41.1    145.6     -0.15     0.29    -0.14
 34H      107.1     22.9    -67.6      0.26    -0.13    -0.12
 35H      -69.8     37.0    107.4     -0.14    -0.13     0.26
 36H      -81.0      6.5    125.3      0.26    -0.13    -0.13
 37H     -146.0      6.7    118.0      0.25    -0.12    -0.12
 38H      119.4     25.2    -80.9     -0.14    -0.13     0.26
 39H      -77.9     35.2    116.5      0.26    -0.13    -0.12
  0V     -128.7      7.1    127.9      0.22    -0.19    -0.03
-------------------------------------------------------------------


Maximum memory used throughout the entire EPRNMR-calculation: 318.8 MB

Timings for individual modules:

Sum of individual times         ...     3982.853 sec (=  66.381 min)
GTO integral calculation        ...        1.530 sec (=   0.026 min)   0.0 %
Spin-Orbit-Coupling Matrices    ...       13.160 sec (=   0.219 min)   0.3 %
SCF iterations                  ...      264.439 sec (=   4.407 min)   6.6 %
EPR/NMR calculation             ...     3703.723 sec (=  61.729 min)  93.0 %
                             ****ORCA TERMINATED NORMALLY****
TOTAL RUN TIME: 0 days 1 hours 6 minutes 24 seconds 90 msec
