
                                 *****************
                                 * O   R   C   A *
                                 *****************

                                            #,                                       
                                            ###                                      
                                            ####                                     
                                            #####                                    
                                            ######                                   
                                           ########,                                 
                                     ,,################,,,,,                         
                               ,,#################################,,                 
                          ,,##########################################,,             
                       ,#########################################, ''#####,          
                    ,#############################################,,   '####,        
                  ,##################################################,,,,####,       
                ,###########''''           ''''###############################       
              ,#####''   ,,,,##########,,,,          '''####'''          '####       
            ,##' ,,,,###########################,,,                        '##       
           ' ,,###''''                  '''############,,,                           
         ,,##''                                '''############,,,,        ,,,,,,###''
      ,#''                                            '''#######################'''  
     '                                                          ''''####''''         
             ,#######,   #######,   ,#######,      ##                                
            ,#'     '#,  ##    ##  ,#'     '#,    #''#        ######   ,####,        
            ##       ##  ##   ,#'  ##            #'  '#       #        #'  '#        
            ##       ##  #######   ##           ,######,      #####,   #    #        
            '#,     ,#'  ##    ##  '#,     ,#' ,#      #,         ##   #,  ,#        
             '#######'   ##     ##  '#######'  #'      '#     #####' # '####'        



                  #######################################################
                  #                        -***-                        #
                  #          Department of theory and spectroscopy      #
                  #    Directorship and core code : Frank Neese         #
                  #        Max Planck Institute fuer Kohlenforschung    #
                  #                Kaiser Wilhelm Platz 1               #
                  #                 D-45470 Muelheim/Ruhr               #
                  #                      Germany                        #
                  #                                                     #
                  #                  All rights reserved                #
                  #                        -***-                        #
                  #######################################################


                         Program Version 5.0.4 -  RELEASE  -


 With contributions from (in alphabetic order):
   Daniel Aravena         : Magnetic Suceptibility
   Michael Atanasov       : Ab Initio Ligand Field Theory (pilot matlab implementation)
   Alexander A. Auer      : GIAO ZORA, VPT2 properties, NMR spectrum
   Ute Becker             : Parallelization
   Giovanni Bistoni       : ED, misc. LED, open-shell LED, HFLD
   Martin Brehm           : Molecular dynamics
   Dmytro Bykov           : SCF Hessian
   Vijay G. Chilkuri      : MRCI spin determinant printing, contributions to CSF-ICE
   Dipayan Datta          : RHF DLPNO-CCSD density
   Achintya Kumar Dutta   : EOM-CC, STEOM-CC
   Dmitry Ganyushin       : Spin-Orbit,Spin-Spin,Magnetic field MRCI
   Miquel Garcia          : C-PCM and meta-GGA Hessian, CC/C-PCM, Gaussian charge scheme
   Yang Guo               : DLPNO-NEVPT2, F12-NEVPT2, CIM, IAO-localization
   Andreas Hansen         : Spin unrestricted coupled pair/coupled cluster methods
   Benjamin Helmich-Paris : MC-RPA, TRAH-SCF, COSX integrals
   Lee Huntington         : MR-EOM, pCC
   Robert Izsak           : Overlap fitted RIJCOSX, COSX-SCS-MP3, EOM
   Marcus Kettner         : VPT2
   Christian Kollmar      : KDIIS, OOCD, Brueckner-CCSD(T), CCSD density, CASPT2, CASPT2-K
   Simone Kossmann        : Meta GGA functionals, TD-DFT gradient, OOMP2, MP2 Hessian
   Martin Krupicka        : Initial AUTO-CI
   Lucas Lang             : DCDCAS
   Marvin Lechner         : AUTO-CI (C++ implementation), FIC-MRCC
   Dagmar Lenk            : GEPOL surface, SMD
   Dimitrios Liakos       : Extrapolation schemes; Compound Job, initial MDCI parallelization
   Dimitrios Manganas     : Further ROCIS development; embedding schemes
   Dimitrios Pantazis     : SARC Basis sets
   Anastasios Papadopoulos: AUTO-CI, single reference methods and gradients
   Taras Petrenko         : DFT Hessian,TD-DFT gradient, ASA, ECA, R-Raman, ABS, FL, XAS/XES, NRVS
   Peter Pinski           : DLPNO-MP2, DLPNO-MP2 Gradient
   Christoph Reimann      : Effective Core Potentials
   Marius Retegan         : Local ZFS, SOC
   Christoph Riplinger    : Optimizer, TS searches, QM/MM, DLPNO-CCSD(T), (RO)-DLPNO pert. Triples
   Tobias Risthaus        : Range-separated hybrids, TD-DFT gradient, RPA, STAB
   Michael Roemelt        : Original ROCIS implementation
   Masaaki Saitow         : Open-shell DLPNO-CCSD energy and density
   Barbara Sandhoefer     : DKH picture change effects
   Avijit Sen             : IP-ROCIS
   Kantharuban Sivalingam : CASSCF convergence, NEVPT2, FIC-MRCI
   Bernardo de Souza      : ESD, SOC TD-DFT
   Georgi Stoychev        : AutoAux, RI-MP2 NMR, DLPNO-MP2 response
   Willem Van den Heuvel  : Paramagnetic NMR
   Boris Wezisla          : Elementary symmetry handling
   Frank Wennmohs         : Technical directorship


 We gratefully acknowledge several colleagues who have allowed us to
 interface, adapt or use parts of their codes:
   Stefan Grimme, W. Hujo, H. Kruse, P. Pracht,  : VdW corrections, initial TS optimization,
                  C. Bannwarth, S. Ehlert          DFT functionals, gCP, sTDA/sTD-DF
   Ed Valeev, F. Pavosevic, A. Kumar             : LibInt (2-el integral package), F12 methods
   Garnet Chan, S. Sharma, J. Yang, R. Olivares  : DMRG
   Ulf Ekstrom                                   : XCFun DFT Library
   Mihaly Kallay                                 : mrcc  (arbitrary order and MRCC methods)
   Jiri Pittner, Ondrej Demel                    : Mk-CCSD
   Frank Weinhold                                : gennbo (NPA and NBO analysis)
   Christopher J. Cramer and Donald G. Truhlar   : smd solvation model
   Lars Goerigk                                  : TD-DFT with DH, B97 family of functionals
   V. Asgeirsson, H. Jonsson                     : NEB implementation
   FAccTs GmbH                                   : IRC, NEB, NEB-TS, DLPNO-Multilevel, CI-OPT
                                                   MM, QMMM, 2- and 3-layer-ONIOM, Crystal-QMMM,
                                                   LR-CPCM, SF, NACMEs, symmetry and pop. for TD-DFT,
                                                   nearIR, NL-DFT gradient (VV10), updates on ESD,
                                                   ML-optimized integration grids
   S Lehtola, MJT Oliveira, MAL Marques          : LibXC Library
   Liviu Ungur et al                             : ANISO software


 Your calculation uses the libint2 library for the computation of 2-el integrals
 For citations please refer to: http://libint.valeyev.net

 Your ORCA version has been built with support for libXC version: 5.1.0
 For citations please refer to: https://tddft.org/programs/libxc/

 This ORCA versions uses:
   CBLAS   interface :  Fast vector & matrix operations
   LAPACKE interface :  Fast linear algebra routines
   SCALAPACK package :  Parallel linear algebra routines
   Shared memory     :  Shared parallel matrices
   BLAS/LAPACK       :  OpenBLAS 0.3.15  USE64BITINT DYNAMIC_ARCH NO_AFFINITY Prescott SINGLE_THREADED
        Core in use  :  Prescott
   Copyright (c) 2011-2014, The OpenBLAS Project


================================================================================

----- Orbital basis set information -----
Your calculation utilizes the basis: TZVP 

The basis set includes element-specific modifications.

Your calculation utilizes the basis: CP(PPP) 

----- AuxJ basis set information -----
Your calculation utilizes the auxiliary basis: def2/J
   F. Weigend, Phys. Chem. Chem. Phys. 8, 1057 (2006).

================================================================================
                                        WARNINGS
                       Please study these warnings very carefully!
================================================================================


WARNING: your system is open-shell and RHF/RKS was chosen
  ===> : WILL SWITCH to UHF/UKS


INFO   : the flag for use of the SHARK integral package has been found!

================================================================================
                                       INPUT FILE
================================================================================
NAME = input_99.inp
|  1> ! nofrozencore ReducedPop printbasis
|  2> ! B3LYP TZVP
|  3> 
|  4> %basis
|  5> newgto V "CP(PPP)" end
|  6> end
|  7> 
|  8> %pal
|  9> nprocs 6
| 10> end
| 11> 
| 12> % sym SymThresh 1e-2 end
| 13> * xyz -2 2 
| 14> V -0.44280880712635773 -0.976010689100961 -0.3005568808861306
| 15> S 1.498363490355527 -0.8437558492777735 -1.8282698485270563
| 16> S 1.2214180883050167 -1.419530006947795 1.477363481669664
| 17> S -1.5089907622252177 0.6828898911101444 -1.7981934409800104
| 18> S -1.7291843943667429 0.1842187896219835 1.4557001728219072
| 19> O -1.1558433746945116 -2.3707801712401575 -0.5658217549178305
| 20> C 0.2108897144170833 -1.1610990764949813 2.8898420268513956
| 21> C -0.9783882980217762 -0.5106463518068763 2.8810075819737753
| 22> C 0.8529094346388713 0.10164732172658326 -3.144176784523226
| 23> C -0.3869128811812396 0.733808007286385 -3.129646279920211
| 24> S 0.7958349197154658 -1.7188141840032247 4.492395225695509
| 25> S -1.779346265197689 -0.2911015744088373 4.469815088396021
| 26> S -0.7898622737627494 1.6893517583228868 -4.584520793359182
| 27> S 1.830861413535788 0.3471045084981093 -4.619885498987505
| 28> C -0.546806482626346 -1.0882560652539806 5.444136913862538
| 29> C 0.7104738471732642 1.411649533440253 -5.424198652084724
| 30> C -0.6341264773780905 -1.216556403805507 6.822907065356295
| 31> C 1.005790224770936 2.0242701900531714 -6.716121374566895
| 32> S 0.6039202106385108 -2.0776471653119217 7.762393710468097
| 33> S -2.010027017824093 -0.5548197439509182 7.731662868896989
| 34> S 2.534171912912036 1.7138085404779808 -7.525379994183648
| 35> S -0.15152587765561626 3.106176427816344 -7.477506067971847
| 36> C 0.9205643658699147 4.6095474182914336 -7.481801759221792
| 37> C 3.1452000403872105 3.4563605725792255 -7.527075194173238
| 38> C 2.2315673438448984 4.442488292251585 -8.162931227400586
| 39> H 0.8476995191403682 5.160968217820589 -6.478523156730087
| 40> H 0.26174957440219127 5.517122690156476 -7.7100840112157565
| 41> H 2.7345964023031697 5.418962145400859 -8.335636254795256
| 42> H 2.140326942786475 4.310818613146474 -9.265745569082833
| 43> H 4.256626462769313 3.442950041706577 -7.797028898710949
| 44> H 3.6711089091878684 3.700882933450552 -6.538210538869629
| 45> C -2.677573639615447 -2.144847969646977 8.401744441231877
| 46> C -0.46737959703433146 -3.435511936512076 8.421135800183553
| 47> C -1.6697237507682063 -2.944246653859302 9.214646608885651
| 48> H -0.7445419873028111 -4.098496669322528 7.594529718982889
| 49> H 0.1904425239496403 -4.079574025400509 9.015989888116732
| 50> H -1.3367980636578138 -2.3622038773494958 10.081267948245484
| 51> H -2.179882488279815 -3.8109440061066264 9.659692601967311
| 52> H -3.567625000351689 -1.879108946785674 8.983732704695395
| 53> H -3.1125343837272776 -2.7193818456625 7.576793168047658
| 54> * 
| 55> 
| 56> % eprnmr
| 57> gtensor true
| 58> Nuclei = all H {aiso,adip,aorb,fgrad,rho}
| 59> Nuclei = all V {aiso,adip,aorb,fgrad,rho}
| 60> end
| 61> 
| 62>                          ****END OF INPUT****
================================================================================

------------------------------------------------------------------------------
                            SYMMETRY HANDLING SETUP
------------------------------------------------------------------------------

------------------
SYMMETRY DETECTION
------------------
The point group will now be determined using a tolerance of 1.0000e-02.
Splitting atom subsets according to nuclear charge, mass and basis set.
Splitting atom subsets according to distance from the molecule's center.
Identifying relative distance patterns of the atoms.
Splitting atom subsets according to atoms' relative distance patterns.
Bring atoms of each subset into input order.
The molecule is neither linear nor planar.
There is at least one atom subset not centered around the molecule's center.
The molecule does not have a center of inversion.
Analyzing the first atom subset for its symmetry.
The subset is an off-center atom pair.
Testing point group C2v.
Test failed.
Testing point group C2.
Test failed.
Testing point group Cs.
Test failed.
Testing point group Cs.
Test failed.
No testing is needed for point group C1.
This point group has been found:    C1
Largest non-degenerate subgroup:    C1


Mass-centered symmetry-perfected Cartesians (point group C1):

Atom          Symmetry-perfected Cartesians (x, y, z; au)
  0      -0.834650165880   -1.840308893285   -0.562380545477
  1       2.833633855116   -1.590383466134   -3.449339665559
  2       2.310282891191   -2.678438939119    2.797402027675
  3      -2.849442069945    1.294558886717   -3.392503492203
  4      -3.265547731126    0.352207074003    2.756464306798
  5      -2.182090222603   -4.476041234479   -1.063658510346
  6       0.400661013986   -2.190075256029    5.466599648108
  7      -1.846748726617   -0.960897743306    5.449904966744
  8       1.613902457782    0.196169613205   -5.936043392319
  9      -0.729022173842    1.390780181545   -5.908584718032
 10       1.506047255351   -3.244004069970    8.494986308963
 11      -3.360339929362   -0.546018239891    8.452316033400
 12      -1.490486171651    3.196496179984   -8.657899107653
 13       3.461963870024    0.660016473806   -8.724728716098
 14      -1.031177291139   -2.052421914013   10.293517449834
 15       1.344738205748    2.671715028175  -10.244660301362
 16      -1.196188167236   -2.294874416765   12.899015437783
 17       1.902805282269    3.829400293157  -12.686040433043
 18       1.143381014124   -3.922100132462   14.674387903521
 19      -3.796263376193   -1.044373356864   14.616315029086
 20       4.791028100956    3.242712800374  -14.215317595634
 21      -0.284205201694    5.873906785110  -14.124848986138
 22       1.741751749418    8.714866234790  -14.132966666156
 23       5.945703922007    6.535658915153  -14.218521059357
 24       4.219188338546    8.399170238402  -15.420114822758
 25       1.604057144309    9.756900530448  -12.237044871424
 26       0.496772220568   10.429934944534  -14.564357603660
 27       5.169775496437   10.244438397789  -15.746480026485
 28       4.046768968197    8.150350604752  -17.504131905098
 29       8.045995478313    6.510316684494  -14.728659629770
 30       6.939527655441    6.997739210820  -12.349837677318
 31      -5.057743673003   -4.049091248634   15.882585688186
 32      -0.881082229700   -6.488092676930   15.919230045970
 33      -3.153183398978   -5.559735833613   17.418748158723
 34      -1.404843241931   -7.740952252913   14.357170931867
 35       0.362021423795   -7.705193638170   17.043341361807
 36      -2.524045027392   -4.459834387782   19.056425151925
 37      -4.117243697702   -7.197556470355   18.259763202646
 38      -6.739696989918   -3.546917272331   16.982384119289
 39      -5.879700358381   -5.134802928964   14.323653708039


------------------
SYMMETRY REDUCTION
------------------
ORCA supports only abelian point groups.
It is now checked, if the determined point group is supported:
Point Group ( C1    ) is          ... supported

The point group is C1 - hence turning off symmetry
If this is a round-off problem, please increase the symmetry
        detection tolerance (%method SymThresh)

Storing the symmetry object:
Symmetry file                     ... input_99.sym.tmp
Writing symmetry information      ... done

                       ****************************
                       * Single Point Calculation *
                       ****************************

---------------------------------
CARTESIAN COORDINATES (ANGSTROEM)
---------------------------------
  V     -0.441678   -0.973850   -0.297599
  S      1.499494   -0.841595   -1.825312
  S      1.222549   -1.417369    1.480321
  S     -1.507860    0.685051   -1.795236
  S     -1.728053    0.186380    1.458658
  O     -1.154712   -2.368619   -0.562864
  C      0.212021   -1.158938    2.892800
  C     -0.977257   -0.508485    2.883965
  C      0.854040    0.103808   -3.141219
  C     -0.385782    0.735969   -3.126688
  S      0.796966   -1.716653    4.495353
  S     -1.778215   -0.288940    4.472773
  S     -0.788731    1.691513   -4.581563
  S      1.831992    0.349266   -4.616928
  C     -0.545676   -1.086095    5.447095
  C      0.711605    1.413811   -5.421241
  C     -0.632996   -1.214395    6.825865
  C      1.006921    2.026431   -6.713163
  S      0.605051   -2.075486    7.765352
  S     -2.008896   -0.552659    7.734621
  S      2.535303    1.715970   -7.522422
  S     -0.150395    3.108338   -7.474548
  C      0.921695    4.611709   -7.478844
  C      3.146331    3.458522   -7.524117
  C      2.232698    4.444649   -8.159973
  H      0.848830    5.163129   -6.475565
  H      0.262881    5.519284   -7.707126
  H      2.735727    5.421123   -8.332678
  H      2.141458    4.312980   -9.262788
  H      4.257757    3.445111   -7.794071
  H      3.672240    3.703044   -6.535253
  C     -2.676443   -2.142687    8.404702
  C     -0.466249   -3.433351    8.424094
  C     -1.668593   -2.942085    9.217605
  H     -0.743411   -4.096336    7.597488
  H      0.191573   -4.077413    9.018948
  H     -1.335667   -2.360043   10.084226
  H     -2.178752   -3.808783    9.662651
  H     -3.566494   -1.876948    8.986691
  H     -3.111403   -2.717221    7.579751

----------------------------
CARTESIAN COORDINATES (A.U.)
----------------------------
  NO LB      ZA    FRAG     MASS         X           Y           Z
   0 V    23.0000    0    50.940   -0.834650   -1.840309   -0.562381
   1 S    16.0000    0    32.060    2.833634   -1.590383   -3.449340
   2 S    16.0000    0    32.060    2.310283   -2.678439    2.797402
   3 S    16.0000    0    32.060   -2.849442    1.294559   -3.392503
   4 S    16.0000    0    32.060   -3.265548    0.352207    2.756464
   5 O     8.0000    0    15.999   -2.182090   -4.476041   -1.063659
   6 C     6.0000    0    12.011    0.400661   -2.190075    5.466600
   7 C     6.0000    0    12.011   -1.846749   -0.960898    5.449905
   8 C     6.0000    0    12.011    1.613902    0.196170   -5.936043
   9 C     6.0000    0    12.011   -0.729022    1.390780   -5.908585
  10 S    16.0000    0    32.060    1.506047   -3.244004    8.494986
  11 S    16.0000    0    32.060   -3.360340   -0.546018    8.452316
  12 S    16.0000    0    32.060   -1.490486    3.196496   -8.657899
  13 S    16.0000    0    32.060    3.461964    0.660016   -8.724729
  14 C     6.0000    0    12.011   -1.031177   -2.052422   10.293517
  15 C     6.0000    0    12.011    1.344738    2.671715  -10.244660
  16 C     6.0000    0    12.011   -1.196188   -2.294874   12.899015
  17 C     6.0000    0    12.011    1.902805    3.829400  -12.686040
  18 S    16.0000    0    32.060    1.143381   -3.922100   14.674388
  19 S    16.0000    0    32.060   -3.796263   -1.044373   14.616315
  20 S    16.0000    0    32.060    4.791028    3.242713  -14.215318
  21 S    16.0000    0    32.060   -0.284205    5.873907  -14.124849
  22 C     6.0000    0    12.011    1.741752    8.714866  -14.132967
  23 C     6.0000    0    12.011    5.945704    6.535659  -14.218521
  24 C     6.0000    0    12.011    4.219188    8.399170  -15.420115
  25 H     1.0000    0     1.008    1.604057    9.756901  -12.237045
  26 H     1.0000    0     1.008    0.496772   10.429935  -14.564358
  27 H     1.0000    0     1.008    5.169775   10.244438  -15.746480
  28 H     1.0000    0     1.008    4.046769    8.150351  -17.504132
  29 H     1.0000    0     1.008    8.045995    6.510317  -14.728660
  30 H     1.0000    0     1.008    6.939528    6.997739  -12.349838
  31 C     6.0000    0    12.011   -5.057744   -4.049091   15.882586
  32 C     6.0000    0    12.011   -0.881082   -6.488093   15.919230
  33 C     6.0000    0    12.011   -3.153183   -5.559736   17.418748
  34 H     1.0000    0     1.008   -1.404843   -7.740952   14.357171
  35 H     1.0000    0     1.008    0.362021   -7.705194   17.043341
  36 H     1.0000    0     1.008   -2.524045   -4.459834   19.056425
  37 H     1.0000    0     1.008   -4.117244   -7.197556   18.259763
  38 H     1.0000    0     1.008   -6.739697   -3.546917   16.982384
  39 H     1.0000    0     1.008   -5.879700   -5.134803   14.323654

--------------------------------
INTERNAL COORDINATES (ANGSTROEM)
--------------------------------
 V      0   0   0     0.000000000000     0.00000000     0.00000000
 S      1   0   0     2.473772047434     0.00000000     0.00000000
 S      1   2   0     2.475350755019    85.73178180     0.00000000
 S      1   2   3     2.476208868923    85.90233970   148.62561222
 S      1   2   3     2.466846860558   145.45900875    75.89459877
 O      1   2   3     1.588762303257   107.21735250   255.26164788
 C      3   1   2     1.755861549453    99.46723233   165.60746332
 C      7   3   1     1.355562239567   124.77118878   342.87094423
 C      2   1   3     1.744135647818   101.80145515   202.31406085
 C      9   2   1     1.391760626953   124.61087973     8.21370332
 S      7   3   1     1.794821380937   119.00998584   165.81703368
 S      8   7   3     1.792775185830   116.42022703   183.45288443
 S     10   9   2     1.786642639976   115.80681620   177.93988561
 S      9   2   1     1.787276003731   119.66316392   186.32740831
 C     12   8   7     1.761792444494    97.01575666     0.26306076
 C     13  10   9     1.741604406266    96.49006378   358.26490722
 C     15  12   8     1.387477167021   123.18673778   179.58141771
 C     16  13  10     1.459993202947   122.27421310   182.90151668
 S     17  15  12     1.776758863100   121.76309521   177.83659588
 S     17  15  12     1.776748382485   121.50397028   359.12060271
 S     18  16  13     1.757053366841   120.62137673   180.00761492
 S     18  16  13     1.757728169996   120.55683687     0.98607941
 C     22  18  16     1.846488634741    96.88418645   117.91174875
 C     21  18  16     1.846576787152    96.97956221   241.93884070
 C     23  22  18     1.486800226081   114.93205130    56.12365838
 H     23  22  18     1.147145212369   110.63742332   275.14971551
 H     23  22  18     1.144483547340   108.17272381   193.77705062
 H     25  23  22     1.111920161714   111.80118453   167.33710311
 H     25  23  22     1.114388257028   113.23115288    68.32934745
 H     24  21  18     1.143819713635   108.10018188   166.71978371
 H     24  21  18     1.146396366776   110.62732676    85.13778771
 C     20  17  15     1.850085826214    98.31267756   117.27017922
 C     19  17  15     1.850789333109    98.07297779   242.85747526
 C     32  20  17     1.521712715642   113.95333982    56.88595656
 H     33  19  17     1.095283232775   108.78119709    69.56762983
 H     33  19  17     1.096082708161   106.07396756   178.48296216
 H     34  32  20     1.095739865415   110.16275268    60.71468294
 H     34  32  20     1.099769145689   108.84087141   173.97287558
 H     32  20  17     1.096138217484   106.07699531   181.11444414
 H     32  20  17     1.095365065508   108.74085494   289.93600955

---------------------------
INTERNAL COORDINATES (A.U.)
---------------------------
 V      0   0   0     0.000000000000     0.00000000     0.00000000
 S      1   0   0     4.674751687400     0.00000000     0.00000000
 S      1   2   0     4.677735012380    85.73178180     0.00000000
 S      1   2   3     4.679356612651    85.90233970   148.62561222
 S      1   2   3     4.661664980778   145.45900875    75.89459877
 O      1   2   3     3.002325645053   107.21735250   255.26164788
 C      3   1   2     3.318097457548    99.46723233   165.60746332
 C      7   3   1     2.561641390267   124.77118878   342.87094423
 C      2   1   3     3.295938714785   101.80145515   202.31406085
 C      9   2   1     2.630046428916   124.61087973     8.21370332
 S      7   3   1     3.391720869278   119.00998584   165.81703368
 S      8   7   3     3.387854120909   116.42022703   183.45288443
 S     10   9   2     3.376265288741   115.80681620   177.93988561
 S      9   2   1     3.377462172780   119.66316392   186.32740831
 C     12   8   7     3.329305224905    97.01575666     0.26306076
 C     13  10   9     3.291155361473    96.49006378   358.26490722
 C     15  12   8     2.621951862740   123.18673778   179.58141771
 C     16  13  10     2.758987310957   122.27421310   182.90151668
 S     17  15  12     3.357587657276   121.76309521   177.83659588
 S     17  15  12     3.357567851785   121.50397028   359.12060271
 S     18  16  13     3.320349666013   120.62137673   180.00761492
 S     18  16  13     3.321624859171   120.55683687     0.98607941
 C     22  18  16     3.489357829059    96.88418645   117.91174875
 C     21  18  16     3.489524412974    96.97956221   241.93884070
 C     23  22  18     2.809645243145   114.93205130    56.12365838
 H     23  22  18     2.167790287215   110.63742332   275.14971551
 H     23  22  18     2.162760469252   108.17272381   193.77705062
 H     25  23  22     2.101224588424   111.80118453   167.33710311
 H     25  23  22     2.105888612640   113.23115288    68.32934745
 H     24  21  18     2.161506005351   108.10018188   166.71978371
 H     24  21  18     2.166375174130   110.62732676    85.13778771
 C     20  17  15     3.496155535794    98.31267756   117.27017922
 C     19  17  15     3.497484971158    98.07297779   242.85747526
 C     32  20  17     2.875620287069   113.95333982    56.88595656
 H     33  19  17     2.069785349020   108.78119709    69.56762983
 H     33  19  17     2.071296138551   106.07396756   178.48296216
 H     34  32  20     2.070648259653   110.16275268    60.71468294
 H     34  32  20     2.078262495889   108.84087141   173.97287558
 H     32  20  17     2.071401035969   106.07699531   181.11444414
 H     32  20  17     2.069939990475   108.74085494   289.93600955

---------------------
BASIS SET INFORMATION
---------------------
There are 5 groups of distinct atoms

 Group   1 Type V   : 17s11p5d1f contracted to 17s7p3d1f pattern {11111111111111111/3311111/311/1}
 Group   2 Type S   : 14s9p1d contracted to 5s4p1d pattern {73211/6111/1}
 Group   3 Type O   : 11s6p1d contracted to 5s3p1d pattern {62111/411/1}
 Group   4 Type C   : 11s6p1d contracted to 5s3p1d pattern {62111/411/1}
 Group   5 Type H   : 5s1p contracted to 3s1p pattern {311/1}

Atom   0V    basis set group =>   1
Atom   1S    basis set group =>   2
Atom   2S    basis set group =>   2
Atom   3S    basis set group =>   2
Atom   4S    basis set group =>   2
Atom   5O    basis set group =>   3
Atom   6C    basis set group =>   4
Atom   7C    basis set group =>   4
Atom   8C    basis set group =>   4
Atom   9C    basis set group =>   4
Atom  10S    basis set group =>   2
Atom  11S    basis set group =>   2
Atom  12S    basis set group =>   2
Atom  13S    basis set group =>   2
Atom  14C    basis set group =>   4
Atom  15C    basis set group =>   4
Atom  16C    basis set group =>   4
Atom  17C    basis set group =>   4
Atom  18S    basis set group =>   2
Atom  19S    basis set group =>   2
Atom  20S    basis set group =>   2
Atom  21S    basis set group =>   2
Atom  22C    basis set group =>   4
Atom  23C    basis set group =>   4
Atom  24C    basis set group =>   4
Atom  25H    basis set group =>   5
Atom  26H    basis set group =>   5
Atom  27H    basis set group =>   5
Atom  28H    basis set group =>   5
Atom  29H    basis set group =>   5
Atom  30H    basis set group =>   5
Atom  31C    basis set group =>   4
Atom  32C    basis set group =>   4
Atom  33C    basis set group =>   4
Atom  34H    basis set group =>   5
Atom  35H    basis set group =>   5
Atom  36H    basis set group =>   5
Atom  37H    basis set group =>   5
Atom  38H    basis set group =>   5
Atom  39H    basis set group =>   5

-------------------------
BASIS SET IN INPUT FORMAT
-------------------------

 # Basis set for element : H 
 NewGTO H 
 S 3 
   1      34.0613410000      0.0254393168
   2       5.1235746000      0.1900859340
   3       1.1646626000      0.8524411390
 S 1 
   1       0.3272304100      1.0000000000
 S 1 
   1       0.1030724100      1.0000000000
 P 1 
   1       0.8000000000      1.0000000000
  end;

 # Basis set for element : C 
 NewGTO C 
 S 6 
   1   13575.3496820000      0.0006064601
   2    2035.2333680000      0.0046978985
   3     463.2256235900      0.0243324735
   4     131.2001959800      0.0973999560
   5      42.8530158900      0.3019558443
   6      15.5841857700      0.6623361013
 S 2 
   1       6.2067138500      0.6559530795
   2       2.5764896500      0.3758563390
 S 1 
   1       0.5769633900      1.0000000000
 S 1 
   1       0.2297283100      1.0000000000
 S 1 
   1       0.0951644400      1.0000000000
 P 4 
   1      34.6972322400      0.0113272290
   2       7.9582622800      0.0761696612
   3       2.3780826900      0.3019225154
   4       0.8143320800      0.7278502776
 P 1 
   1       0.2888754700      1.0000000000
 P 1 
   1       0.1005682400      1.0000000000
 D 1 
   1       0.8000000000      1.0000000000
  end;

 # Basis set for element : O 
 NewGTO O 
 S 6 
   1   27032.3826310000      0.0005722654
   2    4052.3871392000      0.0044353333
   3     922.3272271000      0.0230201034
   4     261.2407098900      0.0928224938
   5      85.3546413500      0.2937849971
   6      31.0350352400      0.6740160462
 S 2 
   1      12.2608607300      0.6383993750
   2       4.9987076000      0.3953458663
 S 1 
   1       1.1703108200      1.0000000000
 S 1 
   1       0.4647474100      1.0000000000
 S 1 
   1       0.1850453600      1.0000000000
 P 4 
   1      63.2749548000      0.0120183316
   2      14.6270493800      0.0830054304
   3       4.4501223500      0.3199174388
   4       1.5275799600      0.7071554258
 P 1 
   1       0.5293511800      1.0000000000
 P 1 
   1       0.1747842100      1.0000000000
 D 1 
   1       1.2000000000      1.0000000000
  end;

 # Basis set for element : S 
 NewGTO S 
 S 7 
   1   60700.9281040000      0.0005238013
   2    9102.6106854000      0.0040506304
   3    2071.4166009000      0.0208270003
   4     586.0247682100      0.0814968475
   5     190.5539502100      0.2374911358
   6      67.6303842600      0.4472617145
   7      25.1273069100      0.3489191913
 S 3 
   1     112.5746301000      0.1004556993
   2      34.7955542200      0.4339117282
   3       6.5115556200     -1.2084330582
 S 2 
   1       3.2399032300      0.6749812922
   2       1.5477160900      0.3470879597
 S 1 
   1       0.4054103000      1.0000000000
 S 1 
   1       0.1455065100      1.0000000000
 P 6 
   1     564.3671602700      0.0025564845
   2     133.4262437900      0.0202874255
   3      42.4682711900      0.0927670112
   4      15.6165275800      0.2650208365
   5       6.1093988500      0.4486298663
   6       2.4404160200      0.3596369916
 P 1 
   1       0.8388220100      1.0000000000
 P 1 
   1       0.3128874700      1.0000000000
 P 1 
   1       0.1077010900      1.0000000000
 D 1 
   1       0.5500000000      1.0000000000
  end;

 # Basis set for element : V 
 NewGTO V 
 S 1 
   1  4239814.9912500000      1.0000000000
 S 1 
   1  1695925.9965000001      1.0000000000
 S 1 
   1  678370.3986000001      1.0000000000
 S 1 
   1  271348.1594400000      1.0000000000
 S 1 
   1   40672.0050780000      1.0000000000
 S 1 
   1    9257.0761385000      1.0000000000
 S 1 
   1    2622.7328773000      1.0000000000
 S 1 
   1     858.5948018500      1.0000000000
 S 1 
   1     314.1941865000      1.0000000000
 S 1 
   1     124.4786212700      1.0000000000
 S 1 
   1      50.4693993090      1.0000000000
 S 1 
   1      12.5138469110      1.0000000000
 S 1 
   1       5.3447758082      1.0000000000
 S 1 
   1       1.5755631295      1.0000000000
 S 1 
   1       0.6306903307      1.0000000000
 S 1 
   1       0.0879544416      1.0000000000
 S 1 
   1       0.0342969197      1.0000000000
 P 3 
   1    1450.0319327000     -0.0222847647
   2     343.7504988400     -0.1817959329
   3     110.8252170800     -0.8607412073
 P 3 
   1      41.8224645460     -0.2522537814
   2      17.0880737100     -0.4620379520
   3       7.2613218939     -0.3990010670
 P 1 
   1       2.9458145262      1.0000000000
 P 1 
   1       1.1650209680      1.0000000000
 P 1 
   1       0.4339937839      1.0000000000
 D 3 
   1      27.3603358640      0.0575501019
   2       7.4542765527      0.3023798347
   3       2.4632270217      0.7724212088
 D 1 
   1       0.8249954244      1.0000000000
 D 1 
   1       0.2526297057      1.0000000000
 P 1 
   1       0.1112480000      1.0000000000
 P 1 
   1       0.0363780000      1.0000000000
 F 1 
   1       1.8000000000      1.0000000000
  end;

---------------------------------
AUXILIARY/J BASIS SET INFORMATION
---------------------------------
There are 5 groups of distinct atoms

 Group   1 Type V   : 19s5p5d3f3g contracted to 8s5p5d2f3g pattern {121111111/11111/11111/21/111}
 Group   2 Type S   : 14s5p5d2f1g contracted to 8s4p3d1f1g pattern {71111111/2111/311/2/1}
 Group   3 Type O   : 12s5p4d2f1g contracted to 6s4p3d1f1g pattern {711111/2111/211/2/1}
 Group   4 Type C   : 12s5p4d2f1g contracted to 6s4p3d1f1g pattern {711111/2111/211/2/1}
 Group   5 Type H   : 5s2p1d contracted to 3s1p1d pattern {311/2/1}

Atom   0V    basis set group =>   1
Atom   1S    basis set group =>   2
Atom   2S    basis set group =>   2
Atom   3S    basis set group =>   2
Atom   4S    basis set group =>   2
Atom   5O    basis set group =>   3
Atom   6C    basis set group =>   4
Atom   7C    basis set group =>   4
Atom   8C    basis set group =>   4
Atom   9C    basis set group =>   4
Atom  10S    basis set group =>   2
Atom  11S    basis set group =>   2
Atom  12S    basis set group =>   2
Atom  13S    basis set group =>   2
Atom  14C    basis set group =>   4
Atom  15C    basis set group =>   4
Atom  16C    basis set group =>   4
Atom  17C    basis set group =>   4
Atom  18S    basis set group =>   2
Atom  19S    basis set group =>   2
Atom  20S    basis set group =>   2
Atom  21S    basis set group =>   2
Atom  22C    basis set group =>   4
Atom  23C    basis set group =>   4
Atom  24C    basis set group =>   4
Atom  25H    basis set group =>   5
Atom  26H    basis set group =>   5
Atom  27H    basis set group =>   5
Atom  28H    basis set group =>   5
Atom  29H    basis set group =>   5
Atom  30H    basis set group =>   5
Atom  31C    basis set group =>   4
Atom  32C    basis set group =>   4
Atom  33C    basis set group =>   4
Atom  34H    basis set group =>   5
Atom  35H    basis set group =>   5
Atom  36H    basis set group =>   5
Atom  37H    basis set group =>   5
Atom  38H    basis set group =>   5
Atom  39H    basis set group =>   5

-------------------------------------
AUXILIARY/J BASIS SET IN INPUT FORMAT
-------------------------------------

 # Auxiliary/J basis set for element : H 
 NewAuxJGTO H 
 S 3 
   1      15.6752927000      0.1007184237
   2       3.6063578000      0.3404257499
   3       1.2080016000      0.6491996172
 S 1 
   1       0.4726794000      1.0000000000
 S 1 
   1       0.2018100000      1.0000000000
 P 2 
   1       2.0281365000      0.5596620919
   2       0.5358730000      0.5596620919
 D 1 
   1       2.2165124000      1.0000000000
  end;

 # Auxiliary/J basis set for element : C 
 NewAuxJGTO C 
 S 7 
   1    1861.0916331000      0.0134602335
   2     642.9939764000      0.0299160374
   3     235.1105725000      0.1008649584
   4      90.7028894000      0.2370970548
   5      36.7794552000      0.3924037254
   6      15.6046273000      0.3195862154
   7       6.8907294000      0.0530104441
 S 1 
   1       3.1478850000     -1.0000000000
 S 1 
   1       1.4777287000      1.0000000000
 S 1 
   1       0.7076466000      1.0000000000
 S 1 
   1       0.3430122000      1.0000000000
 S 1 
   1       0.1669453000      1.0000000000
 P 2 
   1      13.5472892000     -0.6769313712
   2       5.4669419000     -0.3779500978
 P 1 
   1       2.1751721000      1.0000000000
 P 1 
   1       0.8582194000      1.0000000000
 P 1 
   1       0.3376720000      1.0000000000
 D 2 
   1       5.9287253000     -0.3533329857
   2       1.9809209000     -0.7456525731
 D 1 
   1       0.8055417000     -1.0000000000
 D 1 
   1       0.3531244000     -1.0000000000
 F 2 
   1       1.6755626000      0.6311076882
   2       0.5997536000      0.4968166032
 G 1 
   1       1.0024600000     -1.0000000000
  end;

 # Auxiliary/J basis set for element : O 
 NewAuxJGTO O 
 S 7 
   1    2876.8216605000      0.0168151159
   2    1004.7443032000      0.0340137548
   3     369.7579954000      0.1194951309
   4     142.9442404000      0.2664627624
   5      57.8366425000      0.4202764046
   6      24.3864983000      0.2765077335
   7      10.6622662000      0.0057008815
 S 1 
   1       4.8070437000     -1.0000000000
 S 1 
   1       2.2210770000      1.0000000000
 S 1 
   1       1.0447795000      1.0000000000
 S 1 
   1       0.4968425000      1.0000000000
 S 1 
   1       0.2371384000      1.0000000000
 P 2 
   1      64.2613382000     -0.2731534179
   2      16.3006076000     -0.8168011598
 P 1 
   1       4.3550542000      1.0000000000
 P 1 
   1       1.2019554000      1.0000000000
 P 1 
   1       0.3354196000      1.0000000000
 D 2 
   1       9.2146611000     -0.4661230638
   2       2.8435251000     -0.6600908911
 D 1 
   1       0.9955759000     -1.0000000000
 D 1 
   1       0.3649441000     -1.0000000000
 F 2 
   1       2.6420115000      0.5931563945
   2       0.7345613000      0.5931563945
 G 1 
   1       1.3931000000     -1.0000000000
  end;

 # Auxiliary/J basis set for element : S 
 NewAuxJGTO S 
 S 7 
   1    7399.0303145000      0.0295137551
   2    2710.1675859000      0.0559686311
   3    1034.3279062000      0.1764696370
   4     410.4645411000      0.3577969368
   5     168.9762502000      0.4299293578
   6      71.9687889000      0.1259148089
   7      31.6172683000     -0.0646025788
 S 1 
   1      14.2796836000      1.0000000000
 S 1 
   1       6.6060948000      1.0000000000
 S 1 
   1       3.1181477000      1.0000000000
 S 1 
   1       1.4954039000     -1.0000000000
 S 1 
   1       0.7254779000      1.0000000000
 S 1 
   1       0.3544216000      1.0000000000
 S 1 
   1       0.1735525000      1.0000000000
 P 2 
   1      12.6998799000      1.4059102813
   2       4.4295784000     -1.2124994202
 P 1 
   1       1.5232889000      1.0000000000
 P 1 
   1       0.5194667000     -1.0000000000
 P 1 
   1       0.1766547000     -1.0000000000
 D 3 
   1      16.8546461000      1.0295742104
   2       5.0810461000     -0.7461553923
   3       1.5102323000      0.8357028005
 D 1 
   1       0.4451331000      1.0000000000
 D 1 
   1       0.1308362000      1.0000000000
 F 2 
   1       1.0809860000      0.5572698934
   2       0.4161474000      0.5572698934
 G 1 
   1       0.6707100000     -1.0000000000
  end;

 # Auxiliary/J basis set for element : V 
 NewAuxJGTO V 
 S 12 
   1   11942.0842430000      0.0459866720
   2    2430.7110193000      0.1744615821
   3     841.0764301000      0.2900402792
   4     494.7508273000      0.1411212903
   5     291.0298903000      0.2660697186
   6     171.1940483000      0.0446365706
   7      59.2366916000     -0.0408204801
   8      34.8451117000      0.1394665381
   9      20.4971240000      0.2164746715
  10      12.0571314000      0.0864266611
  11       7.0924300000     -0.0568501658
  12       4.1720176000     -0.0126212852
 S 1 
   1       2.4541279000      1.0000000000
 S 1 
   1       1.4436046000      1.0000000000
 S 1 
   1       0.8491792000      1.0000000000
 S 1 
   1       0.2938336000      1.0000000000
 S 1 
   1       0.1728433000      1.0000000000
 S 1 
   1       0.1016725000      1.0000000000
 S 1 
   1       0.0598074000      1.0000000000
 P 1 
   1      16.7130979000     -1.0000000000
 P 1 
   1       4.7454037000     -1.0000000000
 P 1 
   1       1.3889998000      1.0000000000
 P 1 
   1       0.4142440000     -1.0000000000
 P 1 
   1       0.1243234000      1.0000000000
 D 1 
   1       7.7143225000      1.0000000000
 D 1 
   1       3.1170731000      1.0000000000
 D 1 
   1       1.2767950000     -1.0000000000
 D 1 
   1       0.5273386000      1.0000000000
 D 1 
   1       0.2184050000      1.0000000000
 F 2 
   1       3.1309344000     -1.0825667766
   2       1.0419780000      0.1809223232
 F 1 
   1       0.3559044000      1.0000000000
 G 1 
   1       8.7130110000      1.0000000000
 G 1 
   1       2.7493872000      1.0000000000
 G 1 
   1       0.8775089000      1.0000000000
  end;



           ************************************************************
           *        Program running with 6 parallel MPI-processes     *
           *              working on a common directory               *
           ************************************************************
------------------------------------------------------------------------------
                           ORCA GTO INTEGRAL CALCULATION
                           -- RI-GTO INTEGRALS CHOSEN --
------------------------------------------------------------------------------
------------------------------------------------------------------------------
                   ___                                                        
                  /   \      - P O W E R E D   B Y -                         
                 /     \                                                     
                 |  |  |   _    _      __       _____    __    __             
                 |  |  |  | |  | |    /  \     |  _  \  |  |  /  |          
                  \  \/   | |  | |   /    \    | | | |  |  | /  /          
                 / \  \   | |__| |  /  /\  \   | |_| |  |  |/  /          
                |  |  |   |  __  | /  /__\  \  |    /   |      \           
                |  |  |   | |  | | |   __   |  |    \   |  |\   \          
                \     /   | |  | | |  |  |  |  | |\  \  |  | \   \       
                 \___/    |_|  |_| |__|  |__|  |_| \__\ |__|  \__/        
                                                                              
                      - O R C A' S   B I G   F R I E N D -                    
                                      &                                       
                       - I N T E G R A L  F E E D E R -                       
                                                                              
 v1 FN, 2020, v2 2021                                                         
------------------------------------------------------------------------------


Reading SHARK input file input_99.SHARKINP.tmp ... ok
----------------------
SHARK INTEGRAL PACKAGE
----------------------

Number of atoms                             ...     40
Number of basis functions                   ...    681
Number of shells                            ...    331
Maximum angular momentum                    ...      3
Integral batch strategy                     ... SHARK/LIBINT Hybrid
RI-J (if used) integral strategy            ... SPLIT-RIJ (Revised 2003 algorithm where possible)
Printlevel                                  ...      1
Contraction scheme used                     ... SEGMENTED contraction
Coulomb Range Separation                    ... NOT USED
Exchange Range Separation                   ... NOT USED
Finite Nucleus Model                        ... NOT USED
Auxiliary Coulomb fitting basis             ... AVAILABLE
   # of basis functions in Aux-J            ...   1568
   # of shells in Aux-J                     ...    512
   Maximum angular momentum in Aux-J        ...      4
Auxiliary J/K fitting basis                 ... NOT available
Auxiliary Correlation fitting basis         ... NOT available
Auxiliary 'external' fitting basis          ... NOT available
Integral threshold                          ...     1.000000e-10
Primitive cut-off                           ...     1.000000e-11
Primitive pair pre-selection threshold      ...     1.000000e-11

Calculating pre-screening integrals         ... done (  0.1 sec) Dimension = 331
Organizing shell pair data                  ... done (  0.1 sec)
Shell pair information
Total number of shell pairs                 ...     54946
Shell pairs after pre-screening             ...     22654
Total number of primitive shell pairs       ...    221635
Primitive shell pairs kept                  ...     55299
          la=0 lb=0:   6395 shell pairs
          la=1 lb=0:   9072 shell pairs
          la=1 lb=1:   3194 shell pairs
          la=2 lb=0:   2130 shell pairs
          la=2 lb=1:   1539 shell pairs
          la=2 lb=2:    198 shell pairs
          la=3 lb=0:     57 shell pairs
          la=3 lb=1:     56 shell pairs
          la=3 lb=2:     12 shell pairs
          la=3 lb=3:      1 shell pairs

Calculating one electron integrals          ... done (  0.0 sec)
Calculating RI/J V-Matrix + Cholesky decomp.... done (  0.2 sec)
Calculating Nuclear repulsion               ... done (  0.0 sec) ENN=   5061.202888678292 Eh

SHARK setup successfully completed in   0.7 seconds

Maximum memory used throughout the entire GTOINT-calculation: 41.8 MB


           ************************************************************
           *        Program running with 6 parallel MPI-processes     *
           *              working on a common directory               *
           ************************************************************
-------------------------------------------------------------------------------
                                 ORCA SCF
-------------------------------------------------------------------------------

------------
SCF SETTINGS
------------
Hamiltonian:
 Density Functional     Method          .... DFT(GTOs)
 Exchange Functional    Exchange        .... B88
   X-Alpha parameter    XAlpha          ....  0.666667
   Becke's b parameter  XBeta           ....  0.004200
 Correlation Functional Correlation     .... LYP
 LDA part of GGA corr.  LDAOpt          .... VWN-5
 Gradients option       PostSCFGGA      .... off
 Hybrid DFT is turned on
   Fraction HF Exchange ScalHFX         ....  0.200000
   Scaling of DF-GGA-X  ScalDFX         ....  0.720000
   Scaling of DF-GGA-C  ScalDFC         ....  0.810000
   Scaling of DF-LDA-C  ScalLDAC        ....  1.000000
   Perturbative correction              ....  0.000000
   Density functional embedding theory  .... OFF
   NL short-range parameter             ....  4.800000
 RI-approximation to the Coulomb term is turned on
   Number of AuxJ basis functions       .... 1568
   RIJ-COSX (HFX calculated with COS-X)).... on


General Settings:
 Integral files         IntName         .... input_99
 Hartree-Fock type      HFTyp           .... UHF
 Total Charge           Charge          ....   -2
 Multiplicity           Mult            ....    2
 Number of Electrons    NEL             ....  321
 Basis Dimension        Dim             ....  681
 Nuclear Repulsion      ENuc            ....   5061.2028886783 Eh

Convergence Acceleration:
 DIIS                   CNVDIIS         .... on
   Start iteration      DIISMaxIt       ....    12
   Startup error        DIISStart       ....  0.200000
   # of expansion vecs  DIISMaxEq       ....     5
   Bias factor          DIISBfac        ....   1.050
   Max. coefficient     DIISMaxC        ....  10.000
 Trust-Rad. Augm. Hess. CNVTRAH         .... auto
   Auto Start mean grad. ratio tolernc. ....  1.125000
   Auto Start start iteration           ....    20
   Auto Start num. interpolation iter.  ....    10
   Max. Number of Micro iterations      ....    16
   Max. Number of Macro iterations      .... Maxiter - #DIIS iter
   Number of Davidson start vectors     ....     2
   Converg. threshold I  (grad. norm)   ....   5.000e-05
   Converg. threshold II (energy diff.) ....   1.000e-06
   Grad. Scal. Fac. for Micro threshold ....   0.100
   Minimum threshold for Micro iter.    ....   0.010
   NR start threshold (gradient norm)   ....   0.001
   Initial trust radius                 ....   0.400
   Minimum AH scaling param. (alpha)    ....   1.000
   Maximum AH scaling param. (alpha)    .... 1000.000
   Orbital update algorithm             .... Taylor
   White noise on init. David. guess    .... on
   Maximum white noise                  ....   0.010
   Quad. conv. algorithm                .... NR
 SOSCF                  CNVSOSCF        .... off
 Level Shifting         CNVShift        .... on
   Level shift para.    LevelShift      ....    0.2500
   Turn off err/grad.   ShiftErr        ....    0.0010
 Zerner damping         CNVZerner       .... off
 Static damping         CNVDamp         .... on
   Fraction old density DampFac         ....    0.7000
   Max. Damping (<1)    DampMax         ....    0.9800
   Min. Damping (>=0)   DampMin         ....    0.0000
   Turn off err/grad.   DampErr         ....    0.1000
 Fernandez-Rico         CNVRico         .... off

SCF Procedure:
 Maximum # iterations   MaxIter         ....   125
 SCF integral mode      SCFMode         .... Direct
   Integral package                     .... SHARK and LIBINT hybrid scheme
 Reset frequency        DirectResetFreq ....    20
 Integral Threshold     Thresh          ....  1.000e-10 Eh
 Primitive CutOff       TCut            ....  1.000e-11 Eh

Convergence Tolerance:
 Convergence Check Mode ConvCheckMode   .... Total+1el-Energy
 Convergence forced     ConvForced      .... 0
 Energy Change          TolE            ....  1.000e-06 Eh
 1-El. energy change                    ....  1.000e-03 Eh
 DIIS Error             TolErr          ....  1.000e-06


Diagonalization of the overlap matrix:
Smallest eigenvalue                        ... 9.424e-05
Time for diagonalization                   ...    0.184 sec
Threshold for overlap eigenvalues          ... 1.000e-08
Number of eigenvalues below threshold      ... 0
Time for construction of square roots      ...    0.156 sec
Total time needed                          ...    0.342 sec

Time for model grid setup =    0.395 sec

------------------------------
INITIAL GUESS: MODEL POTENTIAL
------------------------------
Loading Hartree-Fock densities                     ... done
Calculating cut-offs                               ... done
Initializing the effective Hamiltonian             ... done
Setting up the integral package (SHARK)            ... done
Starting the Coulomb interaction                   ... done (   0.4 sec)
Reading the grid                                   ... done
Mapping shells                                     ... done
Starting the XC term evaluation                    ... done (   0.2 sec)
  promolecular density results
     # of electrons  =    318.997415543
     EX              =   -428.250192901
     EC              =    -12.536013526
     EX+EC           =   -440.786206427
Transforming the Hamiltonian                       ... done (   0.2 sec)
Diagonalizing the Hamiltonian                      ... done (   0.2 sec)
Back transforming the eigenvectors                 ... done (   0.1 sec)
Now organizing SCF variables                       ... done
                      ------------------
                      INITIAL GUESS DONE (   1.5 sec)
                      ------------------
-------------------
DFT GRID GENERATION
-------------------

General Integration Accuracy     IntAcc      ... 4.388
Radial Grid Type                 RadialGrid  ... OptM3 with GC (2021)
Angular Grid (max. ang.)         AngularGrid ... 4 (Lebedev-302)
Angular grid pruning method      GridPruning ... 4 (adaptive)
Weight generation scheme         WeightScheme... Becke
Basis function cutoff            BFCut       ... 1.0000e-10
Integration weight cutoff        WCut        ... 1.0000e-14
Angular grids for H and He will be reduced by one unit
Partially contracted basis set               ... off
Rotationally invariant grid construction     ... off

Total number of grid points                  ...   237403
Total number of batches                      ...     3729
Average number of points per batch           ...       63
Average number of grid points per atom       ...     5935
Time for grid setup =    1.916 sec

--------------------
COSX GRID GENERATION
--------------------

GRIDX 1
-------
General Integration Accuracy     IntAcc      ... 3.816
Radial Grid Type                 RadialGrid  ... OptM3 with GC (2021)
Angular Grid (max. ang.)         AngularGrid ... 1 (Lebedev-50)
Angular grid pruning method      GridPruning ... 4 (adaptive)
Weight generation scheme         WeightScheme... Becke
Basis function cutoff            BFCut       ... 1.0000e-10
Integration weight cutoff        WCut        ... 1.0000e-14
Angular grids for H and He will be reduced by one unit
Partially contracted basis set               ... on
Rotationally invariant grid construction     ... off

Total number of grid points                  ...    29205
Total number of batches                      ...      479
Average number of points per batch           ...       60
Average number of grid points per atom       ...      730
UseSFitting                                  ... on

GRIDX 2
-------
General Integration Accuracy     IntAcc      ... 4.020
Radial Grid Type                 RadialGrid  ... OptM3 with GC (2021)
Angular Grid (max. ang.)         AngularGrid ... 2 (Lebedev-110)
Angular grid pruning method      GridPruning ... 4 (adaptive)
Weight generation scheme         WeightScheme... Becke
Basis function cutoff            BFCut       ... 1.0000e-10
Integration weight cutoff        WCut        ... 1.0000e-14
Angular grids for H and He will be reduced by one unit
Partially contracted basis set               ... on
Rotationally invariant grid construction     ... off

Total number of grid points                  ...    64123
Total number of batches                      ...     1023
Average number of points per batch           ...       62
Average number of grid points per atom       ...     1603
UseSFitting                                  ... on

GRIDX 3
-------
General Integration Accuracy     IntAcc      ... 4.338
Radial Grid Type                 RadialGrid  ... OptM3 with GC (2021)
Angular Grid (max. ang.)         AngularGrid ... 3 (Lebedev-194)
Angular grid pruning method      GridPruning ... 4 (adaptive)
Weight generation scheme         WeightScheme... Becke
Basis function cutoff            BFCut       ... 1.0000e-10
Integration weight cutoff        WCut        ... 1.0000e-14
Angular grids for H and He will be reduced by one unit
Partially contracted basis set               ... on
Rotationally invariant grid construction     ... off

Total number of grid points                  ...   147391
Total number of batches                      ...     2325
Average number of points per batch           ...       63
Average number of grid points per atom       ...     3685
UseSFitting                                  ... on

Time for X-Grid setup             =    2.153 sec

--------------
SCF ITERATIONS
--------------
ITER       Energy         Delta-E        Max-DP      RMS-DP      [F,P]     Damp
               ***  Starting incremental Fock matrix formation  ***
  0  -6336.7999653005   0.000000000000 0.05708003  0.00066202  0.2309335 0.7000
  1  -6337.1617669308  -0.361801630314 0.10915166  0.00059942  0.1559294 0.7000
                               ***Turning on DIIS***
  2  -6337.3143094190  -0.152542488186 0.04507350  0.00030826  0.1092665 0.7000
  3  -6337.4022097219  -0.087900302857 0.06233191  0.00059635  0.0773287 0.0000
  4  -6337.6182108811  -0.216001159193 0.05864979  0.00029214  0.0170574 0.0000
  5  -6337.6248808485  -0.006669967449 0.01417643  0.00008990  0.0138558 0.0000
  6  -6337.6269009818  -0.002020133224 0.00303979  0.00004714  0.0045062 0.0000
  7  -6337.6275722702  -0.000671288439 0.00175247  0.00003037  0.0019362 0.0000
  8  -6337.6279355134  -0.000363243244 0.00355076  0.00002763  0.0014122 0.0000
  9  -6337.6281671489  -0.000231635489 0.00148059  0.00002115  0.0011345 0.0000
 10  -6337.6283164276  -0.000149278717 0.00392939  0.00005356  0.0008237 0.0000
               *** Restarting incremental Fock matrix formation ***
                                   *** Resetting DIIS ***
 11  -6337.6284498464  -0.000133418715 0.00098020  0.00000867  0.0012642 0.0000
 12  -6337.6284033750   0.000046471330 0.00059679  0.00000446  0.0030495 0.0000
 13  -6337.6284581169  -0.000054741831 0.00024184  0.00000266  0.0011909 0.0000
 14  -6337.6284675594  -0.000009442547 0.00046069  0.00000541  0.0004393 0.0000
 15  -6337.6284708239  -0.000003264531 0.00011541  0.00000204  0.0001926 0.0000
 16  -6337.6284713938  -0.000000569838 0.00010058  0.00000114  0.0000657 0.0000
 17  -6337.6284716788  -0.000000285013 0.00009106  0.00000106  0.0000529 0.0000
 18  -6337.6284717444  -0.000000065566 0.00006729  0.00000058  0.0000354 0.0000
 19  -6337.6284719181  -0.000000173737 0.00003044  0.00000034  0.0000203 0.0000
 20  -6337.6284719155   0.000000002598 0.00002929  0.00000016  0.0000293 0.0000
 21  -6337.6284718805   0.000000034949 0.00000862  0.00000010  0.0000358 0.0000
                 **** Energy Check signals convergence ****

               *****************************************************
               *                     SUCCESS                       *
               *           SCF CONVERGED AFTER  22 CYCLES          *
               *****************************************************

Old exchange energy                            =    -85.905225866 Eh
New exchange energy                            =    -85.905227950 Eh
Exchange energy change after final integration =     -0.000002084 Eh
Total energy after final integration           =  -6337.628474208 Eh
Final COS-X integration done in                =    28.272 sec

----------------
TOTAL SCF ENERGY
----------------

Total Energy       :        -6337.62847421 Eh         -172455.63826 eV

Components:
Nuclear Repulsion  :         5061.20288868 Eh          137722.33227 eV
Electronic Energy  :       -11398.83136289 Eh         -310177.97053 eV
One Electron Energy:       -18892.47100034 Eh         -514090.27176 eV
Two Electron Energy:         7493.63963745 Eh          203912.30124 eV
Max COSX asymmetry :            0.00000485 Eh               0.00013 eV

Virial components:
Potential Energy   :       -12658.55640005 Eh         -344456.83149 eV
Kinetic Energy     :         6320.92792584 Eh          172001.19323 eV
Virial Ratio       :            2.00264210


DFT components:
N(Alpha)           :      161.000005078129 electrons
N(Beta)            :      160.000005545042 electrons
N(Total)           :      321.000010623172 electrons
E(X)               :     -341.394231251583 Eh       
E(C)               :      -14.719118036942 Eh       
E(XC)              :     -356.113349288525 Eh       
DFET-embed. en.    :        0.000000000000 Eh       

---------------
SCF CONVERGENCE
---------------

  Last Energy change         ...   -2.4338e-07  Tolerance :   1.0000e-06
  Last MAX-Density change    ...    0.0000e+00  Tolerance :   1.0000e-05
  Last RMS-Density change    ...    0.0000e+00  Tolerance :   1.0000e-06
  Last DIIS Error            ...    1.0202e-05  Tolerance :   1.0000e-06

             **** THE GBW FILE WAS UPDATED (input_99.gbw) ****
             **** DENSITY input_99.scfp WAS UPDATED ****
             **** ENERGY FILE WAS UPDATED (input_99.en.tmp) ****
----------------------
UHF SPIN CONTAMINATION
----------------------

Warning: in a DFT calculation there is little theoretical justification to 
         calculate <S**2> as in Hartree-Fock theory. We will do it anyways
         but you should keep in mind that the values have only limited relevance

Expectation value of <S**2>     :     0.765687
Ideal value S*(S+1) for S=0.5   :     0.750000
Deviation                       :     0.015687

             **** THE GBW FILE WAS UPDATED (input_99.gbw) ****
             **** DENSITY input_99.scfp WAS UPDATED ****
----------------
ORBITAL ENERGIES
----------------
                 SPIN UP ORBITALS
  NO   OCC          E(Eh)            E(eV) 
   0   1.0000    -196.676959     -5351.8521 
   1   1.0000     -88.733928     -2414.5729 
   2   1.0000     -88.733858     -2414.5710 
   3   1.0000     -88.733312     -2414.5562 
   4   1.0000     -88.733283     -2414.5554 
   5   1.0000     -88.731907     -2414.5179 
   6   1.0000     -88.731707     -2414.5125 
   7   1.0000     -88.730856     -2414.4893 
   8   1.0000     -88.730809     -2414.4881 
   9   1.0000     -88.642373     -2412.0816 
  10   1.0000     -88.641893     -2412.0685 
  11   1.0000     -88.641494     -2412.0577 
  12   1.0000     -88.641198     -2412.0496 
  13   1.0000     -22.052352      -600.0750 
  14   1.0000     -18.892234      -514.0838 
  15   1.0000     -18.558759      -505.0095 
  16   1.0000     -18.553654      -504.8706 
  17   1.0000     -18.553538      -504.8674 
  18   1.0000     -10.078443      -274.2484 
  19   1.0000     -10.077443      -274.2212 
  20   1.0000     -10.065664      -273.9006 
  21   1.0000     -10.065602      -273.8990 
  22   1.0000     -10.062998      -273.8281 
  23   1.0000     -10.062944      -273.8266 
  24   1.0000     -10.056706      -273.6569 
  25   1.0000     -10.052239      -273.5353 
  26   1.0000     -10.048360      -273.4298 
  27   1.0000     -10.043751      -273.3043 
  28   1.0000     -10.023648      -272.7573 
  29   1.0000     -10.023084      -272.7420 
  30   1.0000     -10.020454      -272.6704 
  31   1.0000     -10.019567      -272.6463 
  32   1.0000      -7.787493      -211.9084 
  33   1.0000      -7.787461      -211.9076 
  34   1.0000      -7.786742      -211.8880 
  35   1.0000      -7.786713      -211.8872 
  36   1.0000      -7.785214      -211.8464 
  37   1.0000      -7.785072      -211.8426 
  38   1.0000      -7.784135      -211.8171 
  39   1.0000      -7.784074      -211.8154 
  40   1.0000      -7.696865      -209.4423 
  41   1.0000      -7.696463      -209.4314 
  42   1.0000      -7.695850      -209.4147 
  43   1.0000      -7.695530      -209.4060 
  44   1.0000      -5.752176      -156.5247 
  45   1.0000      -5.752146      -156.5239 
  46   1.0000      -5.751737      -156.5127 
  47   1.0000      -5.751707      -156.5119 
  48   1.0000      -5.750095      -156.4681 
  49   1.0000      -5.749959      -156.4643 
  50   1.0000      -5.749163      -156.4427 
  51   1.0000      -5.749103      -156.4411 
  52   1.0000      -5.748304      -156.4193 
  53   1.0000      -5.748281      -156.4187 
  54   1.0000      -5.747900      -156.4083 
  55   1.0000      -5.747867      -156.4074 
  56   1.0000      -5.745713      -156.3488 
  57   1.0000      -5.745649      -156.3471 
  58   1.0000      -5.745596      -156.3456 
  59   1.0000      -5.745564      -156.3447 
  60   1.0000      -5.743644      -156.2925 
  61   1.0000      -5.743614      -156.2917 
  62   1.0000      -5.741553      -156.2356 
  63   1.0000      -5.741520      -156.2347 
  64   1.0000      -5.741110      -156.2236 
  65   1.0000      -5.740956      -156.2194 
  66   1.0000      -5.739007      -156.1663 
  67   1.0000      -5.738943      -156.1646 
  68   1.0000      -5.662057      -154.0724 
  69   1.0000      -5.661637      -154.0610 
  70   1.0000      -5.661114      -154.0467 
  71   1.0000      -5.660813      -154.0386 
  72   1.0000      -5.655497      -153.8939 
  73   1.0000      -5.655097      -153.8830 
  74   1.0000      -5.654510      -153.8670 
  75   1.0000      -5.654316      -153.8618 
  76   1.0000      -5.654185      -153.8582 
  77   1.0000      -5.653908      -153.8507 
  78   1.0000      -5.653201      -153.8314 
  79   1.0000      -5.652842      -153.8216 
  80   1.0000      -2.446036       -66.5600 
  81   1.0000      -1.487281       -40.4710 
  82   1.0000      -1.475735       -40.1568 
  83   1.0000      -1.474856       -40.1329 
  84   1.0000      -0.709533       -19.3074 
  85   1.0000      -0.707191       -19.2437 
  86   1.0000      -0.688147       -18.7254 
  87   1.0000      -0.686792       -18.6886 
  88   1.0000      -0.651762       -17.7353 
  89   1.0000      -0.630791       -17.1647 
  90   1.0000      -0.626218       -17.0402 
  91   1.0000      -0.617355       -16.7991 
  92   1.0000      -0.613959       -16.7067 
  93   1.0000      -0.581863       -15.8333 
  94   1.0000      -0.576863       -15.6972 
  95   1.0000      -0.574820       -15.6416 
  96   1.0000      -0.573707       -15.6114 
  97   1.0000      -0.499409       -13.5896 
  98   1.0000      -0.497354       -13.5337 
  99   1.0000      -0.495547       -13.4845 
 100   1.0000      -0.490964       -13.3598 
 101   1.0000      -0.485379       -13.2078 
 102   1.0000      -0.480515       -13.0755 
 103   1.0000      -0.452445       -12.3117 
 104   1.0000      -0.448335       -12.1998 
 105   1.0000      -0.413848       -11.2614 
 106   1.0000      -0.404926       -11.0186 
 107   1.0000      -0.351695        -9.5701 
 108   1.0000      -0.348841        -9.4924 
 109   1.0000      -0.340718        -9.2714 
 110   1.0000      -0.329985        -8.9794 
 111   1.0000      -0.320980        -8.7343 
 112   1.0000      -0.315956        -8.5976 
 113   1.0000      -0.301491        -8.2040 
 114   1.0000      -0.299101        -8.1390 
 115   1.0000      -0.287971        -7.8361 
 116   1.0000      -0.281726        -7.6662 
 117   1.0000      -0.258276        -7.0281 
 118   1.0000      -0.256319        -6.9748 
 119   1.0000      -0.252133        -6.8609 
 120   1.0000      -0.250216        -6.8087 
 121   1.0000      -0.235237        -6.4011 
 122   1.0000      -0.233473        -6.3531 
 123   1.0000      -0.228886        -6.2283 
 124   1.0000      -0.218507        -5.9459 
 125   1.0000      -0.213846        -5.8190 
 126   1.0000      -0.212437        -5.7807 
 127   1.0000      -0.210676        -5.7328 
 128   1.0000      -0.197194        -5.3659 
 129   1.0000      -0.194499        -5.2926 
 130   1.0000      -0.186636        -5.0786 
 131   1.0000      -0.185048        -5.0354 
 132   1.0000      -0.177833        -4.8391 
 133   1.0000      -0.172010        -4.6806 
 134   1.0000      -0.160299        -4.3620 
 135   1.0000      -0.151278        -4.1165 
 136   1.0000      -0.144066        -3.9202 
 137   1.0000      -0.137450        -3.7402 
 138   1.0000      -0.135717        -3.6930 
 139   1.0000      -0.130611        -3.5541 
 140   1.0000      -0.125653        -3.4192 
 141   1.0000      -0.123848        -3.3701 
 142   1.0000      -0.115715        -3.1488 
 143   1.0000      -0.110040        -2.9943 
 144   1.0000      -0.103823        -2.8252 
 145   1.0000      -0.100527        -2.7355 
 146   1.0000      -0.095998        -2.6122 
 147   1.0000      -0.090661        -2.4670 
 148   1.0000      -0.075466        -2.0535 
 149   1.0000      -0.068344        -1.8597 
 150   1.0000      -0.067364        -1.8331 
 151   1.0000      -0.054579        -1.4852 
 152   1.0000      -0.046996        -1.2788 
 153   1.0000      -0.039492        -1.0746 
 154   1.0000      -0.034618        -0.9420 
 155   1.0000      -0.028053        -0.7634 
 156   1.0000      -0.025939        -0.7058 
 157   1.0000      -0.020696        -0.5632 
 158   1.0000      -0.018093        -0.4923 
 159   1.0000       0.021490         0.5848 
 160   1.0000       0.042014         1.1433 
 161   0.0000       0.132699         3.6109 
 162   0.0000       0.135407         3.6846 
 163   0.0000       0.156819         4.2673 
 164   0.0000       0.161123         4.3844 
 165   0.0000       0.167005         4.5444 
 166   0.0000       0.170117         4.6291 
 167   0.0000       0.171385         4.6636 
 168   0.0000       0.172284         4.6881 
 169   0.0000       0.173840         4.7304 
 170   0.0000       0.175485         4.7752 
 171   0.0000       0.175866         4.7855 
 172   0.0000       0.184700         5.0259 
 173   0.0000       0.189566         5.1584 
 174   0.0000       0.196550         5.3484 
 175   0.0000       0.198499         5.4014 
 176   0.0000       0.201275         5.4770 
 177   0.0000       0.205948         5.6041 
 178   0.0000       0.206978         5.6322 
 179   0.0000       0.207135         5.6364 
 180   0.0000       0.211881         5.7656 
 181   0.0000       0.212511         5.7827 
 182   0.0000       0.217037         5.9059 
 183   0.0000       0.218206         5.9377 
 184   0.0000       0.228406         6.2152 
 185   0.0000       0.231939         6.3114 
 186   0.0000       0.232551         6.3280 
 187   0.0000       0.235654         6.4125 
 188   0.0000       0.237191         6.4543 
 189   0.0000       0.241091         6.5604 
 190   0.0000       0.242425         6.5967 
 191   0.0000       0.249374         6.7858 
 192   0.0000       0.251746         6.8504 
 193   0.0000       0.251964         6.8563 
 194   0.0000       0.263720         7.1762 
 195   0.0000       0.266517         7.2523 
 196   0.0000       0.267811         7.2875 
 197   0.0000       0.271469         7.3871 
 198   0.0000       0.275452         7.4954 
 199   0.0000       0.276552         7.5254 
 200   0.0000       0.291547         7.9334 
 201   0.0000       0.299095         8.1388 
 202   0.0000       0.306854         8.3499 
 203   0.0000       0.309252         8.4152 
 204   0.0000       0.311414         8.4740 
 205   0.0000       0.324440         8.8284 
 206   0.0000       0.325518         8.8578 
 207   0.0000       0.330611         8.9964 
 208   0.0000       0.337083         9.1725 
 209   0.0000       0.340670         9.2701 
 210   0.0000       0.351890         9.5754 
 211   0.0000       0.352274         9.5859 
 212   0.0000       0.353276         9.6131 
 213   0.0000       0.354783         9.6541 
 214   0.0000       0.362599         9.8668 
 215   0.0000       0.370790        10.0897 
 216   0.0000       0.376701        10.2506 
 217   0.0000       0.383559        10.4372 
 218   0.0000       0.387612        10.5474 
 219   0.0000       0.387872        10.5545 
 220   0.0000       0.390650        10.6301 
 221   0.0000       0.393947        10.7198 
 222   0.0000       0.395747        10.7688 
 223   0.0000       0.399707        10.8766 
 224   0.0000       0.401080        10.9139 
 225   0.0000       0.404256        11.0004 
 226   0.0000       0.408453        11.1146 
 227   0.0000       0.408669        11.1204 
 228   0.0000       0.411770        11.2048 
 229   0.0000       0.414985        11.2923 
 230   0.0000       0.422423        11.4947 
 231   0.0000       0.423337        11.5196 
 232   0.0000       0.429291        11.6816 
 233   0.0000       0.430919        11.7259 
 234   0.0000       0.436489        11.8775 
 235   0.0000       0.443767        12.0755 
 236   0.0000       0.446874        12.1601 
 237   0.0000       0.452421        12.3110 
 238   0.0000       0.454700        12.3730 
 239   0.0000       0.466444        12.6926 
 240   0.0000       0.467605        12.7242 
 241   0.0000       0.470811        12.8114 
 242   0.0000       0.472165        12.8483 
 243   0.0000       0.473354        12.8806 
 244   0.0000       0.474857        12.9215 
 245   0.0000       0.477830        13.0024 
 246   0.0000       0.480235        13.0679 
 247   0.0000       0.481448        13.1009 
 248   0.0000       0.487714        13.2714 
 249   0.0000       0.492227        13.3942 
 250   0.0000       0.500148        13.6097 
 251   0.0000       0.502538        13.6748 
 252   0.0000       0.504173        13.7192 
 253   0.0000       0.508797        13.8451 
 254   0.0000       0.511237        13.9115 
 255   0.0000       0.514699        14.0057 
 256   0.0000       0.518540        14.1102 
 257   0.0000       0.520838        14.1727 
 258   0.0000       0.521144        14.1810 
 259   0.0000       0.524259        14.2658 
 260   0.0000       0.525754        14.3065 
 261   0.0000       0.526470        14.3260 
 262   0.0000       0.527603        14.3568 
 263   0.0000       0.530221        14.4280 
 264   0.0000       0.530557        14.4372 
 265   0.0000       0.531218        14.4552 
 266   0.0000       0.538084        14.6420 
 267   0.0000       0.543928        14.8010 
 268   0.0000       0.544923        14.8281 
 269   0.0000       0.549172        14.9437 
 270   0.0000       0.551475        15.0064 
 271   0.0000       0.553712        15.0673 
 272   0.0000       0.555533        15.1168 
 273   0.0000       0.557258        15.1638 
 274   0.0000       0.562070        15.2947 
 275   0.0000       0.569639        15.5007 
 276   0.0000       0.569906        15.5079 
 277   0.0000       0.572231        15.5712 
 278   0.0000       0.575252        15.6534 
 279   0.0000       0.576765        15.6946 
 280   0.0000       0.581772        15.8308 
 281   0.0000       0.584808        15.9134 
 282   0.0000       0.592988        16.1360 
 283   0.0000       0.593867        16.1599 
 284   0.0000       0.604718        16.4552 
 285   0.0000       0.605302        16.4711 
 286   0.0000       0.609090        16.5742 
 287   0.0000       0.610844        16.6219 
 288   0.0000       0.614207        16.7134 
 289   0.0000       0.614810        16.7298 
 290   0.0000       0.619349        16.8534 
 291   0.0000       0.621988        16.9252 
 292   0.0000       0.625796        17.0288 
 293   0.0000       0.629566        17.1314 
 294   0.0000       0.633158        17.2291 
 295   0.0000       0.634846        17.2750 
 296   0.0000       0.635698        17.2982 
 297   0.0000       0.645027        17.5521 
 298   0.0000       0.649421        17.6717 
 299   0.0000       0.656164        17.8551 
 300   0.0000       0.667643        18.1675 
 301   0.0000       0.673734        18.3332 
 302   0.0000       0.675360        18.3775 
 303   0.0000       0.690018        18.7763 
 304   0.0000       0.704584        19.1727 
 305   0.0000       0.712999        19.4017 
 306   0.0000       0.716009        19.4836 
 307   0.0000       0.717382        19.5209 
 308   0.0000       0.731535        19.9061 
 309   0.0000       0.734219        19.9791 
 310   0.0000       0.738767        20.1029 
 311   0.0000       0.743912        20.2429 
 312   0.0000       0.757141        20.6029 
 313   0.0000       0.767296        20.8792 
 314   0.0000       0.771323        20.9888 
 315   0.0000       0.781988        21.2790 
 316   0.0000       0.792907        21.5761 
 317   0.0000       0.794976        21.6324 
 318   0.0000       0.802362        21.8334 
 319   0.0000       0.812126        22.0991 
 320   0.0000       0.818001        22.2589 
 321   0.0000       0.822088        22.3701 
 322   0.0000       0.823616        22.4117 
 323   0.0000       0.836123        22.7521 
 324   0.0000       0.837445        22.7880 
 325   0.0000       0.842834        22.9347 
 326   0.0000       0.858930        23.3727 
 327   0.0000       0.860398        23.4126 
 328   0.0000       0.866044        23.5663 
 329   0.0000       0.866622        23.5820 
 330   0.0000       0.869708        23.6660 
 331   0.0000       0.870481        23.6870 
 332   0.0000       0.875690        23.8287 
 333   0.0000       0.880717        23.9655 
 334   0.0000       0.891873        24.2691 
 335   0.0000       0.893568        24.3152 
 336   0.0000       0.898003        24.4359 
 337   0.0000       0.901833        24.5401 
 338   0.0000       0.907099        24.6834 
 339   0.0000       0.915659        24.9163 
 340   0.0000       0.922639        25.1063 
 341   0.0000       0.931907        25.3585 
 342   0.0000       0.933115        25.3914 
 343   0.0000       0.937191        25.5023 
 344   0.0000       0.939330        25.5605 
 345   0.0000       0.941931        25.6313 
 346   0.0000       0.943327        25.6692 
 347   0.0000       0.948802        25.8182 
 348   0.0000       0.965138        26.2627 
 349   0.0000       0.970474        26.4079 
 350   0.0000       0.976928        26.5836 
 351   0.0000       0.983174        26.7535 
 352   0.0000       0.989119        26.9153 
 353   0.0000       0.998148        27.1610 
 354   0.0000       1.008796        27.4507 
 355   0.0000       1.012850        27.5611 
 356   0.0000       1.014089        27.5948 
 357   0.0000       1.014350        27.6019 
 358   0.0000       1.020057        27.7572 
 359   0.0000       1.032136        28.0859 
 360   0.0000       1.034788        28.1580 
 361   0.0000       1.040214        28.3057 
 362   0.0000       1.045139        28.4397 
 363   0.0000       1.047328        28.4992 
 364   0.0000       1.057254        28.7693 
 365   0.0000       1.067096        29.0371 
 366   0.0000       1.067542        29.0493 
 367   0.0000       1.068773        29.0828 
 368   0.0000       1.073320        29.2065 
 369   0.0000       1.080274        29.3958 
 370   0.0000       1.087932        29.6041 
 371   0.0000       1.094139        29.7730 
 372   0.0000       1.097937        29.8764 
 373   0.0000       1.098419        29.8895 
 374   0.0000       1.103064        30.0159 
 375   0.0000       1.106262        30.1029 
 376   0.0000       1.113296        30.2943 
 377   0.0000       1.118029        30.4231 
 378   0.0000       1.131639        30.7935 
 379   0.0000       1.141577        31.0639 
 380   0.0000       1.143177        31.1074 
 381   0.0000       1.159163        31.5424 
 382   0.0000       1.161194        31.5977 
 383   0.0000       1.162145        31.6236 
 384   0.0000       1.167309        31.7641 
 385   0.0000       1.198438        32.6112 
 386   0.0000       1.203663        32.7533 
 387   0.0000       1.236924        33.6584 
 388   0.0000       1.240305        33.7504 
 389   0.0000       1.241812        33.7914 
 390   0.0000       1.246935        33.9308 
 391   0.0000       1.251051        34.0428 
 392   0.0000       1.275328        34.7034 
 393   0.0000       1.280820        34.8529 
 394   0.0000       1.287276        35.0285 
 395   0.0000       1.289790        35.0970 
 396   0.0000       1.298397        35.3312 
 397   0.0000       1.299733        35.3675 
 398   0.0000       1.313029        35.7293 
 399   0.0000       1.326788        36.1037 
 400   0.0000       1.336704        36.3736 
 401   0.0000       1.348727        36.7007 
 402   0.0000       1.357007        36.9260 
 403   0.0000       1.401124        38.1265 
 404   0.0000       1.404668        38.2230 
 405   0.0000       1.411388        38.4058 
 406   0.0000       1.416596        38.5475 
 407   0.0000       1.428549        38.8728 
 408   0.0000       1.433998        39.0211 
 409   0.0000       1.446597        39.3639 
 410   0.0000       1.448461        39.4146 
 411   0.0000       1.450911        39.4813 
 412   0.0000       1.482313        40.3358 
[...]
Total number of batches                      ...      301
Average number of points per batch           ...       59
Average number of grid points per atom       ...      445

Memory available               ... 812.8 MB
Memory needed per perturbation ...  48.1 MB
Perturbations treated per batch... 3
Number of batches              ... 1
     CP-SCF ITERATION   0:   4.1369e-02 (   6.2 sec   0/  3 done)
     CP-SCF ITERATION   1:   1.3541e-03 (   6.4 sec   0/  3 done)
     CP-SCF ITERATION   2:   1.4856e-04 (   6.4 sec   3/  3 done)
                    *** THE CP-SCF HAS CONVERGED ***

Forming final perturbed densities           ... done
Transforming perturbed density to AO basis  ... done

 Raw HFC matrix (all values in MHz): 
 -----------------------------------
                -0.0459               0.0085              -0.0804
                 0.0087              -0.0729              -0.0254
                -0.0801              -0.0251               0.1475

 A(FC)           0.0094               0.0094               0.0094
 A(SD)          -0.0845              -0.0865               0.1710
 A(ORB+DIA)      0.0005               0.0012              -0.0011    A(PC) =   0.0002
 A(ORB)          0.0005               0.0012              -0.0011    A(PC) =   0.0002
 A(DIA)         -0.0000              -0.0000               0.0000    A(PC) =  -0.0000
             ----------           ----------           ----------
 A(Tot)         -0.0747              -0.0759               0.1793    A(iso)=    0.0096
 Orientation: 
  X          -0.8775940            0.3402104            0.3377657
  Y           0.3945294            0.9127851            0.1056876
  Z          -0.2723515            0.2260093           -0.9352777

Notes:  (1) The A matrix conforms to the "SAI" spin Hamiltonian convention.
        (2) Tensor is right-handed.

 Raw EFG matrix (all values in a.u.**-3):
 -----------------------------------
             0.1320      -0.0871      -0.1895
            -0.0871      -0.1135       0.0540
            -0.1895       0.0540      -0.0185

 V(El)       0.5514       0.8114      -1.3628
 V(Nuc)     -0.6892      -0.9604       1.6496
         ----------   ----------   ----------
 V(Tot)     -0.1378      -0.1490       0.2868 
 Orientation: 
  X       0.0404608    0.5947056   -0.8029248
  Y      -0.8846984    0.3948162    0.2478486
  Z       0.4644047    0.7003181    0.5421096

Note: Tensor is right-handed


 Quadrupole tensor eigenvalues (in MHz;Q= 0.0029 I=  1.0)
  e**2qQ            =     0.192601 MHz 
  e**2qQ/(4I*(2I-1))=     0.048150 MHz 
  eta               =     0.039018
  NOTE: the diagonal representation of the SH term I*Q*I = e**2qQ/(4I(2I-1))*[-(1-eta),-(1+eta),2]

 RHO(0)=      0.442391781 a.u.**-3

 -----------------------------------------------------------
 Nucleus  39H : A:ISTP=    1 I=  0.5 P=533.5514 MHz/au**3
                Q:ISTP=    2 I=  1.0 Q=  0.0029 barn     
 -----------------------------------------------------------
 Solving for nuclear perturbation:
Forming RHS of the CP-SCF equations         ... 
Calc. nucleus orbit integrals (SHARK)       ... done

------------------------------------------------------------------------------
                           ORCA CP-SCF CALCULATION
------------------------------------------------------------------------------

Input orbitals are from        ... input_99.gbw
Input Perturbation             ... input_99.pin.tmp
Wavefunction output            ... input_99.pout.tmp
Perturbation mode              ... Imaginary perturbation
Solver                         ... POPLE
Max. number of iterations      ... 64
Convergence tolerance          ... 1.000e-03
Integral handling              ... Direct
DFT GridXC                     ... 1
COSX GridX                     ... 1
COSX IntAccX                   ... 3.067
COSX Algorithm                 ... Auto
Number of perturbations        ... 3
Number of operators            ... 2
Orbital ranges used for CP-SCF:
 Operator 0:  Orbitals   0...160  to 161...680
 Operator 1:  Orbitals   0...159  to 160...680
Variables per perturbation     ... 167080
DFT calculation                         ... on
XC functional terms                     ... off
Hybrid DFT                              ... on
   Exchange mixing (SCF)                ...  0.200
   Exchange mixing (CP-SCF)             ...  0.200
   GGA exch. scaling(SCF)               ...  0.720
   GGA exch. scaling (CP-SCF)           ...  0.720
   GGA corr. scaling (SCF)              ...  0.810
   GGA corr. scaling (CP-SCF)           ...  0.810

CP-SCF GRID
-----------

General Integration Accuracy     IntAcc      ... 3.467
Radial Grid Type                 RadialGrid  ... OptM3 with GC (2021)
Angular Grid (max. ang.)         AngularGrid ... 1 (Lebedev-50)
Angular grid pruning method      GridPruning ... 4 (adaptive)
Weight generation scheme         WeightScheme... Becke
Basis function cutoff            BFCut       ... 1.0000e-10
Integration weight cutoff        WCut        ... 1.0000e-14
Angular grids for H and He will be reduced by one unit
Partially contracted basis set               ... off
Rotationally invariant grid construction     ... off

Total number of grid points                  ...    39370
Total number of batches                      ...      635
Average number of points per batch           ...       62
Average number of grid points per atom       ...      984

CP-SCF GRIDX
------------

General Integration Accuracy     IntAcc      ... 3.067
Radial Grid Type                 RadialGrid  ... OptM3 with GC (2021)
Angular Grid (max. ang.)         AngularGrid ... 1 (Lebedev-50)
Angular grid pruning method      GridPruning ... 4 (adaptive)
Weight generation scheme         WeightScheme... Becke
Basis function cutoff            BFCut       ... 1.0000e-10
Integration weight cutoff        WCut        ... 1.0000e-14
Angular grids for H and He will be reduced by one unit
Partially contracted basis set               ... on
Rotationally invariant grid construction     ... off

Total number of grid points                  ...    17782
Total number of batches                      ...      301
Average number of points per batch           ...       59
Average number of grid points per atom       ...      445

Memory available               ... 809.9 MB
Memory needed per perturbation ...  48.1 MB
Perturbations treated per batch... 3
Number of batches              ... 1
     CP-SCF ITERATION   0:   4.3715e-02 (   6.3 sec   0/  3 done)
     CP-SCF ITERATION   1:   1.6468e-03 (   6.4 sec   1/  3 done)
     CP-SCF ITERATION   2:   1.7864e-04 (   5.2 sec   3/  3 done)
                    *** THE CP-SCF HAS CONVERGED ***

Forming final perturbed densities           ... done
Transforming perturbed density to AO basis  ... done

 Raw HFC matrix (all values in MHz): 
 -----------------------------------
                -0.0946               0.0309              -0.1178
                 0.0309              -0.1175              -0.0796
                -0.1174              -0.0792               0.1929

 A(FC)          -0.0068              -0.0068              -0.0068
 A(SD)          -0.1294              -0.1332               0.2626
 A(ORB+DIA)      0.0018               0.0008              -0.0015    A(PC) =   0.0004
 A(ORB)          0.0018               0.0009              -0.0015    A(PC) =   0.0004
 A(DIA)         -0.0000              -0.0001               0.0000    A(PC) =  -0.0000
             ----------           ----------           ----------
 A(Tot)         -0.1344              -0.1392               0.2543    A(iso)=   -0.0064
 Orientation: 
  X           0.6505881            0.6843193            0.3293057
  Y           0.6504795           -0.7259238            0.2234078
  Z           0.3919331            0.0688602           -0.9174130

Notes:  (1) The A matrix conforms to the "SAI" spin Hamiltonian convention.
        (2) Tensor is right-handed.

 Raw EFG matrix (all values in a.u.**-3):
 -----------------------------------
            -0.0801       0.0855       0.1255
             0.0855      -0.0214       0.1693
             0.1255       0.1693       0.1015

 V(El)       0.6323       0.4645      -1.0967
 V(Nuc)     -0.7715      -0.6088       1.3803
         ----------   ----------   ----------
 V(Tot)     -0.1392      -0.1443       0.2835 
 Orientation: 
  X      -0.3744096   -0.8434585    0.3852209
  Y       0.8389613   -0.1312044    0.5281377
  Z      -0.3949196    0.5209252    0.7567532

Note: Tensor is right-handed


 Quadrupole tensor eigenvalues (in MHz;Q= 0.0029 I=  1.0)
  e**2qQ            =     0.190396 MHz 
  e**2qQ/(4I*(2I-1))=     0.047599 MHz 
  eta               =     0.017900
  NOTE: the diagonal representation of the SH term I*Q*I = e**2qQ/(4I(2I-1))*[-(1-eta),-(1+eta),2]

 RHO(0)=      0.441040553 a.u.**-3

 -----------------------------------------------------------
 Nucleus   0V : A:ISTP=   51 I=  3.5 P=140.5173 MHz/au**3
                Q:ISTP=   51 I=  3.5 Q= -0.0430 barn     
 -----------------------------------------------------------
 Solving for nuclear perturbation:
Forming RHS of the CP-SCF equations         ... 
Calc. nucleus orbit integrals (SHARK)       ... done

------------------------------------------------------------------------------
                           ORCA CP-SCF CALCULATION
------------------------------------------------------------------------------

Input orbitals are from        ... input_99.gbw
Input Perturbation             ... input_99.pin.tmp
Wavefunction output            ... input_99.pout.tmp
Perturbation mode              ... Imaginary perturbation
Solver                         ... POPLE
Max. number of iterations      ... 64
Convergence tolerance          ... 1.000e-03
Integral handling              ... Direct
DFT GridXC                     ... 1
COSX GridX                     ... 1
COSX IntAccX                   ... 3.067
COSX Algorithm                 ... Auto
Number of perturbations        ... 3
Number of operators            ... 2
Orbital ranges used for CP-SCF:
 Operator 0:  Orbitals   0...160  to 161...680
 Operator 1:  Orbitals   0...159  to 160...680
Variables per perturbation     ... 167080
DFT calculation                         ... on
XC functional terms                     ... off
Hybrid DFT                              ... on
   Exchange mixing (SCF)                ...  0.200
   Exchange mixing (CP-SCF)             ...  0.200
   GGA exch. scaling(SCF)               ...  0.720
   GGA exch. scaling (CP-SCF)           ...  0.720
   GGA corr. scaling (SCF)              ...  0.810
   GGA corr. scaling (CP-SCF)           ...  0.810

CP-SCF GRID
-----------

General Integration Accuracy     IntAcc      ... 3.467
Radial Grid Type                 RadialGrid  ... OptM3 with GC (2021)
Angular Grid (max. ang.)         AngularGrid ... 1 (Lebedev-50)
Angular grid pruning method      GridPruning ... 4 (adaptive)
Weight generation scheme         WeightScheme... Becke
Basis function cutoff            BFCut       ... 1.0000e-10
Integration weight cutoff        WCut        ... 1.0000e-14
Angular grids for H and He will be reduced by one unit
Partially contracted basis set               ... off
Rotationally invariant grid construction     ... off

Total number of grid points                  ...    39370
Total number of batches                      ...      635
Average number of points per batch           ...       62
Average number of grid points per atom       ...      984

CP-SCF GRIDX
------------

General Integration Accuracy     IntAcc      ... 3.067
Radial Grid Type                 RadialGrid  ... OptM3 with GC (2021)
Angular Grid (max. ang.)         AngularGrid ... 1 (Lebedev-50)
Angular grid pruning method      GridPruning ... 4 (adaptive)
Weight generation scheme         WeightScheme... Becke
Basis function cutoff            BFCut       ... 1.0000e-10
Integration weight cutoff        WCut        ... 1.0000e-14
Angular grids for H and He will be reduced by one unit
Partially contracted basis set               ... on
Rotationally invariant grid construction     ... off

Total number of grid points                  ...    17782
Total number of batches                      ...      301
Average number of points per batch           ...       59
Average number of grid points per atom       ...      445

Memory available               ... 807.1 MB
Memory needed per perturbation ...  48.1 MB
Perturbations treated per batch... 3
Number of batches              ... 1
     CP-SCF ITERATION   0:   1.2533e+01 (   6.7 sec   0/  3 done)
     CP-SCF ITERATION   1:   1.9486e+00 (   6.4 sec   0/  3 done)
     CP-SCF ITERATION   2:   3.3987e-01 (   6.4 sec   0/  3 done)
     CP-SCF ITERATION   3:   4.1611e-02 (   6.4 sec   0/  3 done)
     CP-SCF ITERATION   4:   9.0773e-03 (   6.4 sec   0/  3 done)
     CP-SCF ITERATION   5:   2.3568e-03 (   6.4 sec   1/  3 done)
     CP-SCF ITERATION   6:   3.6124e-04 (   5.2 sec   3/  3 done)
                    *** THE CP-SCF HAS CONVERGED ***

Forming final perturbed densities           ... done
Transforming perturbed density to AO basis  ... done

 Raw HFC matrix (all values in MHz): 
 -----------------------------------
              -143.5345            -118.5654             -23.7445
              -118.5194            -318.1659             -46.9076
               -24.2693             -47.9013             -98.3117

 A(FC)        -174.7616            -174.7616            -174.7616
 A(SD)          98.0790              93.7343            -191.8133
 A(ORB+DIA)     -6.9385              -7.5333             -21.2556    A(PC) = -11.9092
 A(ORB)         -6.9381              -7.5338             -21.2555    A(PC) = -11.9091
 A(DIA)         -0.0004               0.0005              -0.0002    A(PC) =  -0.0000
             ----------           ----------           ----------
 A(Tot)        -83.6211             -88.5606            -387.8305    A(iso)= -186.6707
 Orientation: 
  X           0.8929127            0.0754243            0.4438673
  Y          -0.4501930            0.1621936            0.8780772
  Z          -0.0057641           -0.9838722            0.1787802

Notes:  (1) The A matrix conforms to the "SAI" spin Hamiltonian convention.
        (2) Tensor is right-handed.

 Raw EFG matrix (all values in a.u.**-3):
 -----------------------------------
             0.0249       0.0989       0.0528
             0.0989       0.1321       0.0830
             0.0528       0.0830      -0.1570

 V(El)       0.1947      -0.4721       0.2774
 V(Nuc)     -0.2286       0.2892      -0.0606
         ----------   ----------   ----------
 V(Tot)     -0.0339      -0.1829       0.2168 
 Orientation: 
  X       0.8550338    0.1464274    0.4974698
  Y      -0.5182721    0.2086603    0.8293702
  Z       0.0176404   -0.9669643    0.2543008

Note: Tensor is right-handed


 Quadrupole tensor eigenvalues (in MHz;Q=-0.0430 I=  3.5)
  e**2qQ            =    -2.190796 MHz 
  e**2qQ/(4I*(2I-1))=    -0.026081 MHz 
  eta               =     0.687206
  NOTE: the diagonal representation of the SH term I*Q*I = e**2qQ/(4I(2I-1))*[-(1-eta),-(1+eta),2]

 RHO(0)=   8115.203811455 a.u.**-3


--------------------------------------------------------------------------------
----------------------------------------------------------------------------
                           ORCA EULER ANGLE PROGRAM
----------------------------------------------------------------------------

Only g-tensor available        -->  using g-tensor as reference tensor

Reference tensor               ...  g

g-tensor ordering              ...  |g_min> --> |gx>
                                    |g_mid> --> |gy>
                                    |g_max> --> |gz>

A- and EFG-tensor ordering     ...  the axes |Ax>, |Qx>, |Ay>, etc. are assigned
                                    such that the Euler rotation is minimal. You
                                    can find the respective eigenvalues as Ax,
                                    EFGx, Ay, etc. in the tables below.
                                    The relation of |Ax>, |Ay>,  etc. to Amin, Amid, etc.
                                    (as printed in the ORCA EPR/NMR CALCULATION Output)
                                    is obtained in the detailed printout.

Euler rotation around          ...  z - y - z
   First rotation              -->  by alpha around z
   Second rotation             -->  by beta around y'
   Third rotation              -->  by gamma around z''
   Positive / Negative angle   -->  clockwise / counterclockwise rotation

Plot EFG-tensors                    (-)
Plot HFC-tensors                    (-)
Detailed Printout                   (-)

-------------------------------------------------------------------------
          Euler rotation of hyperfine tensor to g-tensor
-------------------------------------------------------------------------

-------------------------------------------------------------------
 Atom  |   Alpha    Beta    Gamma   |   Ax       Ay       Az 
       |          [degrees]         |           [MHz]         
-------------------------------------------------------------------
 25H       72.8      6.9    -99.2      -0.12     0.24    -0.12
 26H       14.5     40.1    -32.5      -0.08     0.17    -0.08
 27H     -124.9      4.9    101.1      -0.07     0.12    -0.07
 28H     -104.3      4.1     88.8      -0.07     0.13    -0.07
 29H      -25.6     43.5     -2.2      -0.08     0.17    -0.08
 30H      -95.8     14.7     69.4      -0.12     0.24    -0.12
 34H      161.2     10.4   -166.1      -0.14     0.26    -0.14
 35H       31.6     14.5    -30.0      -0.08     0.18    -0.07
 36H      -31.6     10.4     38.5      -0.07     0.14    -0.07
 37H      -18.4     19.6     14.8      -0.07     0.14    -0.07
 38H     -106.0     20.0    109.6      -0.08     0.18    -0.07
 39H      -43.5     23.1     37.6      -0.13     0.25    -0.14
  0V      -76.1      4.2     83.0    -387.83   -88.56   -83.62
-------------------------------------------------------------------


-------------------------------------------------------------------------------
    Euler rotation of Electric Field Gradient (EFG) tensor to g-tensor
-------------------------------------------------------------------------------

-------------------------------------------------------------------
 Atom  |   Alpha    Beta    Gamma  |   EFGx     EFGy     EFGz
       |          [degrees]        |         [a.u.**-3]       
-------------------------------------------------------------------
 25H      -19.9     49.2     53.9     -0.10     0.22    -0.11
 26H      -17.9     34.5     53.2     -0.11    -0.12     0.23
 27H      -45.7      3.9     69.9      0.27    -0.14    -0.13
 28H      -43.3      3.9     70.5     -0.14     0.26    -0.12
 29H      166.7     27.0   -130.5     -0.11    -0.12     0.23
 30H      163.3     41.6   -128.2     -0.10     0.22    -0.11
 34H       97.2     34.5   -127.8      0.28    -0.14    -0.14
 35H     -118.2     41.8     83.5     -0.15    -0.14     0.29
 36H      -93.5      7.0     58.2      0.28    -0.15    -0.14
 37H      -18.2      7.0     58.8      0.28    -0.15    -0.14
 38H       49.6     29.6    -86.2     -0.15    -0.14     0.29
 39H       84.0     41.9   -118.2      0.28    -0.14    -0.14
  0V      -54.7      8.1     57.1      0.22    -0.18    -0.03
-------------------------------------------------------------------


Maximum memory used throughout the entire EPRNMR-calculation: 316.0 MB

Timings for individual modules:

Sum of individual times         ...     4023.694 sec (=  67.062 min)
GTO integral calculation        ...        1.449 sec (=   0.024 min)   0.0 %
Spin-Orbit-Coupling Matrices    ...       13.115 sec (=   0.219 min)   0.3 %
SCF iterations                  ...      285.468 sec (=   4.758 min)   7.1 %
EPR/NMR calculation             ...     3723.663 sec (=  62.061 min)  92.5 %
                             ****ORCA TERMINATED NORMALLY****
TOTAL RUN TIME: 0 days 1 hours 7 minutes 4 seconds 778 msec
