
                                 *****************
                                 * O   R   C   A *
                                 *****************

                                            #,                                       
                                            ###                                      
                                            ####                                     
                                            #####                                    
                                            ######                                   
                                           ########,                                 
                                     ,,################,,,,,                         
                               ,,#################################,,                 
                          ,,##########################################,,             
                       ,#########################################, ''#####,          
                    ,#############################################,,   '####,        
                  ,##################################################,,,,####,       
                ,###########''''           ''''###############################       
              ,#####''   ,,,,##########,,,,          '''####'''          '####       
            ,##' ,,,,###########################,,,                        '##       
           ' ,,###''''                  '''############,,,                           
         ,,##''                                '''############,,,,        ,,,,,,###''
      ,#''                                            '''#######################'''  
     '                                                          ''''####''''         
             ,#######,   #######,   ,#######,      ##                                
            ,#'     '#,  ##    ##  ,#'     '#,    #''#        ######   ,####,        
            ##       ##  ##   ,#'  ##            #'  '#       #        #'  '#        
            ##       ##  #######   ##           ,######,      #####,   #    #        
            '#,     ,#'  ##    ##  '#,     ,#' ,#      #,         ##   #,  ,#        
             '#######'   ##     ##  '#######'  #'      '#     #####' # '####'        



                  #######################################################
                  #                        -***-                        #
                  #          Department of theory and spectroscopy      #
                  #    Directorship and core code : Frank Neese         #
                  #        Max Planck Institute fuer Kohlenforschung    #
                  #                Kaiser Wilhelm Platz 1               #
                  #                 D-45470 Muelheim/Ruhr               #
                  #                      Germany                        #
                  #                                                     #
                  #                  All rights reserved                #
                  #                        -***-                        #
                  #######################################################


                         Program Version 5.0.4 -  RELEASE  -


 With contributions from (in alphabetic order):
   Daniel Aravena         : Magnetic Suceptibility
   Michael Atanasov       : Ab Initio Ligand Field Theory (pilot matlab implementation)
   Alexander A. Auer      : GIAO ZORA, VPT2 properties, NMR spectrum
   Ute Becker             : Parallelization
   Giovanni Bistoni       : ED, misc. LED, open-shell LED, HFLD
   Martin Brehm           : Molecular dynamics
   Dmytro Bykov           : SCF Hessian
   Vijay G. Chilkuri      : MRCI spin determinant printing, contributions to CSF-ICE
   Dipayan Datta          : RHF DLPNO-CCSD density
   Achintya Kumar Dutta   : EOM-CC, STEOM-CC
   Dmitry Ganyushin       : Spin-Orbit,Spin-Spin,Magnetic field MRCI
   Miquel Garcia          : C-PCM and meta-GGA Hessian, CC/C-PCM, Gaussian charge scheme
   Yang Guo               : DLPNO-NEVPT2, F12-NEVPT2, CIM, IAO-localization
   Andreas Hansen         : Spin unrestricted coupled pair/coupled cluster methods
   Benjamin Helmich-Paris : MC-RPA, TRAH-SCF, COSX integrals
   Lee Huntington         : MR-EOM, pCC
   Robert Izsak           : Overlap fitted RIJCOSX, COSX-SCS-MP3, EOM
   Marcus Kettner         : VPT2
   Christian Kollmar      : KDIIS, OOCD, Brueckner-CCSD(T), CCSD density, CASPT2, CASPT2-K
   Simone Kossmann        : Meta GGA functionals, TD-DFT gradient, OOMP2, MP2 Hessian
   Martin Krupicka        : Initial AUTO-CI
   Lucas Lang             : DCDCAS
   Marvin Lechner         : AUTO-CI (C++ implementation), FIC-MRCC
   Dagmar Lenk            : GEPOL surface, SMD
   Dimitrios Liakos       : Extrapolation schemes; Compound Job, initial MDCI parallelization
   Dimitrios Manganas     : Further ROCIS development; embedding schemes
   Dimitrios Pantazis     : SARC Basis sets
   Anastasios Papadopoulos: AUTO-CI, single reference methods and gradients
   Taras Petrenko         : DFT Hessian,TD-DFT gradient, ASA, ECA, R-Raman, ABS, FL, XAS/XES, NRVS
   Peter Pinski           : DLPNO-MP2, DLPNO-MP2 Gradient
   Christoph Reimann      : Effective Core Potentials
   Marius Retegan         : Local ZFS, SOC
   Christoph Riplinger    : Optimizer, TS searches, QM/MM, DLPNO-CCSD(T), (RO)-DLPNO pert. Triples
   Tobias Risthaus        : Range-separated hybrids, TD-DFT gradient, RPA, STAB
   Michael Roemelt        : Original ROCIS implementation
   Masaaki Saitow         : Open-shell DLPNO-CCSD energy and density
   Barbara Sandhoefer     : DKH picture change effects
   Avijit Sen             : IP-ROCIS
   Kantharuban Sivalingam : CASSCF convergence, NEVPT2, FIC-MRCI
   Bernardo de Souza      : ESD, SOC TD-DFT
   Georgi Stoychev        : AutoAux, RI-MP2 NMR, DLPNO-MP2 response
   Willem Van den Heuvel  : Paramagnetic NMR
   Boris Wezisla          : Elementary symmetry handling
   Frank Wennmohs         : Technical directorship


 We gratefully acknowledge several colleagues who have allowed us to
 interface, adapt or use parts of their codes:
   Stefan Grimme, W. Hujo, H. Kruse, P. Pracht,  : VdW corrections, initial TS optimization,
                  C. Bannwarth, S. Ehlert          DFT functionals, gCP, sTDA/sTD-DF
   Ed Valeev, F. Pavosevic, A. Kumar             : LibInt (2-el integral package), F12 methods
   Garnet Chan, S. Sharma, J. Yang, R. Olivares  : DMRG
   Ulf Ekstrom                                   : XCFun DFT Library
   Mihaly Kallay                                 : mrcc  (arbitrary order and MRCC methods)
   Jiri Pittner, Ondrej Demel                    : Mk-CCSD
   Frank Weinhold                                : gennbo (NPA and NBO analysis)
   Christopher J. Cramer and Donald G. Truhlar   : smd solvation model
   Lars Goerigk                                  : TD-DFT with DH, B97 family of functionals
   V. Asgeirsson, H. Jonsson                     : NEB implementation
   FAccTs GmbH                                   : IRC, NEB, NEB-TS, DLPNO-Multilevel, CI-OPT
                                                   MM, QMMM, 2- and 3-layer-ONIOM, Crystal-QMMM,
                                                   LR-CPCM, SF, NACMEs, symmetry and pop. for TD-DFT,
                                                   nearIR, NL-DFT gradient (VV10), updates on ESD,
                                                   ML-optimized integration grids
   S Lehtola, MJT Oliveira, MAL Marques          : LibXC Library
   Liviu Ungur et al                             : ANISO software


 Your calculation uses the libint2 library for the computation of 2-el integrals
 For citations please refer to: http://libint.valeyev.net

 Your ORCA version has been built with support for libXC version: 5.1.0
 For citations please refer to: https://tddft.org/programs/libxc/

 This ORCA versions uses:
   CBLAS   interface :  Fast vector & matrix operations
   LAPACKE interface :  Fast linear algebra routines
   SCALAPACK package :  Parallel linear algebra routines
   Shared memory     :  Shared parallel matrices
   BLAS/LAPACK       :  OpenBLAS 0.3.15  USE64BITINT DYNAMIC_ARCH NO_AFFINITY Prescott SINGLE_THREADED
        Core in use  :  Prescott
   Copyright (c) 2011-2014, The OpenBLAS Project


================================================================================

----- Orbital basis set information -----
Your calculation utilizes the basis: TZVP 

The basis set includes element-specific modifications.

Your calculation utilizes the basis: CP(PPP) 

----- AuxJ basis set information -----
Your calculation utilizes the auxiliary basis: def2/J
   F. Weigend, Phys. Chem. Chem. Phys. 8, 1057 (2006).

================================================================================
                                        WARNINGS
                       Please study these warnings very carefully!
================================================================================


WARNING: your system is open-shell and RHF/RKS was chosen
  ===> : WILL SWITCH to UHF/UKS


INFO   : the flag for use of the SHARK integral package has been found!

================================================================================
                                       INPUT FILE
================================================================================
NAME = input_19.inp
|  1> ! nofrozencore ReducedPop printbasis
|  2> ! B3LYP TZVP
|  3> 
|  4> %basis
|  5> newgto V "CP(PPP)" end
|  6> end
|  7> 
|  8> %pal
|  9> nprocs 8
| 10> end
| 11> 
| 12> % sym SymThresh 1e-2 end
| 13> * xyz -2 2 
| 14> V -0.8841016947967745 0.46266049654896 0.491277779997774
| 15> S 0.2787370066448248 -0.43440991458841605 2.4130599757797087
| 16> S 0.9402441004292043 2.190950768087929 0.41202828855430634
| 17> S -1.5745591837903976 -1.9269504878432517 0.018802565967760462
| 18> S -0.9173558765609626 0.6582047183854924 -1.930713635295546
| 19> O -2.1413170971386974 1.2419165712319788 1.0726703552340338
| 20> C 0.627553866139913 2.827371027464036 -1.1986291103126148
| 21> C -0.11358253856683032 2.206133009598761 -2.1356208407431385
| 22> C -0.27569322422396314 -2.099930382537349 2.4467981450535596
| 23> C -1.0201338372268258 -2.699342312064711 1.499080181155435
| 24> S 1.3842565446957373 4.379640890064846 -1.6959927611122112
| 25> S -0.2115788100546739 2.992366380135955 -3.746073637932241
| 26> S -1.4199808317582046 -4.426283072439635 1.7901552470351914
| 27> S 0.23902622881530594 -3.113053308362851 3.8400456373817278
| 28> C 0.8060452822909369 4.386579266116673 -3.366821354798592
| 29> C -0.509215615388818 -4.619343562190261 3.2924665283503765
| 30> C 1.1203212685593427 5.3859102967081505 -4.246100483588761
| 31> C -0.43055639648900157 -5.826825033711115 3.9296134463417483
| 32> S 2.0954689787056937 6.788595496078078 -3.7306720871602423
| 33> S 0.5648310005860229 5.391932273420038 -5.938009647815202
| 34> S 0.4384460578970041 -6.071141206923682 5.4648186068196125
| 35> S -1.189807843058297 -7.276554129956683 3.213170719329013
| 36> C 0.3035971496596818 -8.366891438771283 3.0195335263676655
| 37> C 1.7626143360937299 -7.168955948824289 4.773520173212084
| 38> C 1.185648649951214 -8.494912111962574 4.267598326692594
| 39> H 0.8967491649532647 -7.991748433612111 2.1710070523420715
| 40> H -0.10431746111247003 -9.35061632346293 2.742259238665021
| 41> H 2.0169843296239933 -9.168274201943383 4.015756925503919
| 42> H 0.6177478249791829 -8.967183033787151 5.078337274091233
| 43> H 2.484359654855845 -7.344378387174379 5.585461082151449
| 44> H 2.271707828130865 -6.615968151635844 3.9700453652379273
| 45> C -0.5143893429975076 6.8918610386444765 -5.821391705761936
| 46> C 0.8766944183498909 8.149092844018403 -4.057298020439984
| 47> C 0.2791446528506253 8.15203862931736 -5.467944249802521
| 48> H 0.08113242309286806 8.085321507540224 -3.3056320405077733
| 49> H 1.4369301239748318 9.075111033293489 -3.88303384607068
| 50> H 1.0767653475023569 8.290814397027535 -6.2060344564099115
| 51> H -0.39120632111158055 9.019653694045916 -5.544271646640001
| 52> H -0.9936825009413269 7.001164988172235 -6.801178394250241
| 53> H -1.2928511200958515 6.688761804880473 -5.077535673194235
| 54> * 
| 55> 
| 56> % eprnmr
| 57> gtensor true
| 58> Nuclei = all H {aiso,adip,aorb,fgrad,rho}
| 59> Nuclei = all V {aiso,adip,aorb,fgrad,rho}
| 60> end
| 61> 
| 62>                          ****END OF INPUT****
================================================================================

------------------------------------------------------------------------------
                            SYMMETRY HANDLING SETUP
------------------------------------------------------------------------------

------------------
SYMMETRY DETECTION
------------------
The point group will now be determined using a tolerance of 1.0000e-02.
Splitting atom subsets according to nuclear charge, mass and basis set.
Splitting atom subsets according to distance from the molecule's center.
Identifying relative distance patterns of the atoms.
Splitting atom subsets according to atoms' relative distance patterns.
Bring atoms of each subset into input order.
The molecule is neither linear nor planar.
There is at least one atom subset not centered around the molecule's center.
The molecule does not have a center of inversion.
Analyzing the first atom subset for its symmetry.
The subset is an off-center atom pair.
Testing point group C2v.
Test failed.
Testing point group C2.
Test failed.
Testing point group Cs.
Test failed.
Testing point group Cs.
Test failed.
No testing is needed for point group C1.
This point group has been found:    C1
Largest non-degenerate subgroup:    C1


Mass-centered symmetry-perfected Cartesians (point group C1):

Atom          Symmetry-perfected Cartesians (x, y, z; au)
  0      -1.665376967325    0.875306708377    0.923581069770
  1       0.532069716324   -0.819910691516    4.555223108843
  2       1.782136959223    4.141302001506    0.773821234689
  3      -2.970152528638   -3.640403618734    0.030732310187
  4      -1.728218263667    1.244831734719   -3.653319403843
  5      -4.041169769099    2.347887277723    2.022253813261
  6       1.191238051664    5.343961997806   -2.269880144744
  7      -0.209306781110    4.169992280061   -4.040537905006
  8      -0.515651580385   -3.967288246380    4.618979009031
  9      -1.922440461928   -5.100012634592    2.828051605066
 10       2.621198878940    8.277326924061   -3.209761233722
 11      -0.394492896368    5.655758027726   -7.083852643301
 12      -2.678041777064   -8.363457721207    3.378103763992
 13       0.457027221661   -5.881813116187    7.251835206303
 14       1.528537945446    8.290438554614   -6.367169692514
 15      -0.956944945825   -8.728289174116    6.217060653578
 16       2.122433489961   10.178900519561   -8.028766441200
 17      -0.808300564196  -11.010098467075    7.421093835653
 18       3.965195602258   12.829591398475   -7.054747930304
 19       1.072709013433   10.190280406331  -11.226011405060
 20       0.833876084299  -11.471789124534   10.322211148339
 21      -2.243077864995  -13.749689427356    6.067213290959
 22       0.579048578272  -15.810128334612    5.701292026921
 23       3.336191485317  -13.546358332508    9.015846432012
 24       2.245884349838  -16.052052346424    8.059792696922
 25       1.699943442961  -15.101210793805    4.097809373631
 26      -0.191798322112  -17.669098957803    5.177319559185
 27       3.816881109777  -17.324522285453    7.583881419493
 28       1.172707319413  -16.944515049687    9.591867273610
 29       4.700092476217  -13.877858698734   10.550192386835
 30       4.298238761829  -12.501362840421    7.497499089436
 31      -0.966721874096   13.024734992996  -11.005635432278
 32       1.662045464195   15.400558792008   -7.671981492439
 33       0.532840056013   15.406125519472  -10.337716537783
 34       0.158651170603   15.280048430870   -6.251538646182
 35       2.720737518270   17.150479564768   -7.342669927928
 36       2.040124727652   15.668373714469  -11.732504890401
 37      -0.733939698383   17.045680381474  -10.481954414321
 38      -1.872454680473   13.231289522959  -12.857163943182
 39      -2.437801438538   12.640933063173   -9.599951247660


------------------
SYMMETRY REDUCTION
------------------
ORCA supports only abelian point groups.
It is now checked, if the determined point group is supported:
Point Group ( C1    ) is          ... supported

The point group is C1 - hence turning off symmetry
If this is a round-off problem, please increase the symmetry
        detection tolerance (%method SymThresh)

Storing the symmetry object:
Symmetry file                     ... input_19.sym.tmp
Writing symmetry information      ... done

                       ****************************
                       * Single Point Calculation *
                       ****************************

---------------------------------
CARTESIAN COORDINATES (ANGSTROEM)
---------------------------------
  V     -0.881280    0.463192    0.488738
  S      0.281559   -0.433878    2.410520
  S      0.943066    2.191483    0.409489
  S     -1.571737   -1.926419    0.016263
  S     -0.914534    0.658737   -1.933253
  O     -2.138495    1.242448    1.070131
  C      0.630376    2.827903   -1.201169
  C     -0.110760    2.206665   -2.138161
  C     -0.272871   -2.099399    2.444258
  C     -1.017312   -2.698810    1.496540
  S      1.387079    4.380173   -1.698532
  S     -0.208757    2.992898   -3.748613
  S     -1.417159   -4.425751    1.787616
  S      0.241848   -3.112521    3.837506
  C      0.808867    4.387111   -3.369361
  C     -0.506393   -4.618812    3.289927
  C      1.123143    5.386442   -4.248640
  C     -0.427734   -5.826293    3.927074
  S      2.098291    6.789127   -3.733212
  S      0.567653    5.392464   -5.940549
  S      0.441268   -6.070609    5.462279
  S     -1.186986   -7.276022    3.210631
  C      0.306419   -8.366360    3.016994
  C      1.765436   -7.168424    4.770980
  C      1.188471   -8.494380    4.265059
  H      0.899571   -7.991217    2.168467
  H     -0.101495   -9.350084    2.739720
  H      2.019806   -9.167742    4.013217
  H      0.620570   -8.966651    5.075798
  H      2.487182   -7.343847    5.582921
  H      2.274530   -6.615436    3.967506
  C     -0.511567    6.892393   -5.823931
  C      0.879517    8.149625   -4.059838
  C      0.281967    8.152570   -5.470484
  H      0.083955    8.085853   -3.308172
  H      1.439752    9.075643   -3.885574
  H      1.079588    8.291346   -6.208574
  H     -0.388384    9.020186   -5.546811
  H     -0.990860    7.001697   -6.803718
  H     -1.290029    6.689294   -5.080075

----------------------------
CARTESIAN COORDINATES (A.U.)
----------------------------
  NO LB      ZA    FRAG     MASS         X           Y           Z
   0 V    23.0000    0    50.940   -1.665377    0.875307    0.923581
   1 S    16.0000    0    32.060    0.532070   -0.819911    4.555223
   2 S    16.0000    0    32.060    1.782137    4.141302    0.773821
   3 S    16.0000    0    32.060   -2.970153   -3.640404    0.030732
   4 S    16.0000    0    32.060   -1.728218    1.244832   -3.653319
   5 O     8.0000    0    15.999   -4.041170    2.347887    2.022254
   6 C     6.0000    0    12.011    1.191238    5.343962   -2.269880
   7 C     6.0000    0    12.011   -0.209307    4.169992   -4.040538
   8 C     6.0000    0    12.011   -0.515652   -3.967288    4.618979
   9 C     6.0000    0    12.011   -1.922440   -5.100013    2.828052
  10 S    16.0000    0    32.060    2.621199    8.277327   -3.209761
  11 S    16.0000    0    32.060   -0.394493    5.655758   -7.083853
  12 S    16.0000    0    32.060   -2.678042   -8.363458    3.378104
  13 S    16.0000    0    32.060    0.457027   -5.881813    7.251835
  14 C     6.0000    0    12.011    1.528538    8.290439   -6.367170
  15 C     6.0000    0    12.011   -0.956945   -8.728289    6.217061
  16 C     6.0000    0    12.011    2.122433   10.178901   -8.028766
  17 C     6.0000    0    12.011   -0.808301  -11.010098    7.421094
  18 S    16.0000    0    32.060    3.965196   12.829591   -7.054748
  19 S    16.0000    0    32.060    1.072709   10.190280  -11.226011
  20 S    16.0000    0    32.060    0.833876  -11.471789   10.322211
  21 S    16.0000    0    32.060   -2.243078  -13.749689    6.067213
  22 C     6.0000    0    12.011    0.579049  -15.810128    5.701292
  23 C     6.0000    0    12.011    3.336191  -13.546358    9.015846
  24 C     6.0000    0    12.011    2.245884  -16.052052    8.059793
  25 H     1.0000    0     1.008    1.699943  -15.101211    4.097809
  26 H     1.0000    0     1.008   -0.191798  -17.669099    5.177320
  27 H     1.0000    0     1.008    3.816881  -17.324522    7.583881
  28 H     1.0000    0     1.008    1.172707  -16.944515    9.591867
  29 H     1.0000    0     1.008    4.700092  -13.877859   10.550192
  30 H     1.0000    0     1.008    4.298239  -12.501363    7.497499
  31 C     6.0000    0    12.011   -0.966722   13.024735  -11.005635
  32 C     6.0000    0    12.011    1.662045   15.400559   -7.671981
  33 C     6.0000    0    12.011    0.532840   15.406126  -10.337717
  34 H     1.0000    0     1.008    0.158651   15.280048   -6.251539
  35 H     1.0000    0     1.008    2.720738   17.150480   -7.342670
  36 H     1.0000    0     1.008    2.040125   15.668374  -11.732505
  37 H     1.0000    0     1.008   -0.733940   17.045680  -10.481954
  38 H     1.0000    0     1.008   -1.872455   13.231290  -12.857164
  39 H     1.0000    0     1.008   -2.437801   12.640933   -9.599951

--------------------------------
INTERNAL COORDINATES (ANGSTROEM)
--------------------------------
 V      0   0   0     0.000000000000     0.00000000     0.00000000
 S      1   0   0     2.418713702804     0.00000000     0.00000000
 S      1   2   0     2.514260393267    86.05181947     0.00000000
 S      1   2   3     2.531838270646    85.94756880   148.18760313
 S      1   2   3     2.430099956597   145.92648345    76.14625054
 O      1   2   3     1.589291642322   105.75384142   256.15361716
 C      3   1   2     1.759836124669    98.54055537   165.93077615
 C      7   3   1     1.346541253775   124.59810753   343.10631189
 C      2   1   3     1.755702017463   102.43220860   203.02032453
 C      9   2   1     1.345977647156   125.70334089     7.71862750
 S      7   3   1     1.797084102431   119.39679101   165.76055084
 S      8   7   3     1.794804834556   116.89300610   183.81546435
 S     10   9   2     1.796364857944   115.92174955   179.12406157
 S      9   2   1     1.797913444259   117.32519373   185.54587366
 C     12   8   7     1.767263607677    96.98414654   359.81267499
 C     13  10   9     1.767400582216    97.35650851   357.09488218
 C     15  12   8     1.367685523274   124.80510906   179.63704943
 C     16  13  10     1.367536095279   121.47440659   183.02450063
 S     17  15  12     1.784406135660   120.94669345   177.06389226
 S     17  15  12     1.780775764101   122.79295961   358.42568556
 S     18  16  13     1.780929685018   123.42326827   181.54493412
 S     18  16  13     1.786467853813   120.34696890     2.94119459
 C     22  18  16     1.859190490984   100.15420980   120.13193379
 C     21  18  16     1.853783256162    96.21883903   246.52112906
 C     24  21  18     1.531994146313   111.51169917   294.90168598
 H     23  22  18     1.101162460625   108.24879008   285.61125077
 H     23  22  18     1.100449912110   104.63995519   170.55140496
 H     25  24  21     1.099072157719   108.72763936   188.74812168
 H     25  24  21     1.096744642765   108.88021940   305.34027817
 H     24  21  18     1.100425997803   106.72342086   173.95263426
 H     24  21  18     1.100246997052   107.77008805    57.70875265
 C     20  17  15     1.851513595727    97.16465383   114.80690545
 C     19  17  15     1.855545462395    99.58829213   240.81946653
 C     32  20  17     1.530577951862   112.29260195    62.37669672
 H     33  19  17     1.096351867350   108.25764045    71.54511697
 H     33  19  17     1.096239816461   104.81506336   186.75858839
 H     34  32  20     1.095552207487   109.03698517    56.09330455
 H     34  32  20     1.099068787813   108.52341298   172.66165569
 H     32  20  17     1.096198540217   106.22065583   183.32995487
 H     32  20  17     1.095707002052   107.86156832   299.30743720

---------------------------
INTERNAL COORDINATES (A.U.)
---------------------------
 V      0   0   0     0.000000000000     0.00000000     0.00000000
 S      1   0   0     4.570706494663     0.00000000     0.00000000
 S      1   2   0     4.751263572639    86.05181947     0.00000000
 S      1   2   3     4.784480946902    85.94756880   148.18760313
 S      1   2   3     4.592223396022   145.92648345    76.14625054
 O      1   2   3     3.003325950919   105.75384142   256.15361716
 C      3   1   2     3.325608316205    98.54055537   165.93077615
 C      7   3   1     2.544594197662   124.59810753   343.10631189
 C      2   1   3     3.317795985778   102.43220860   203.02032453
 C      9   2   1     2.543529135504   125.70334089     7.71862750
 S      7   3   1     3.395996793218   119.39679101   165.76055084
 S      8   7   3     3.391689601149   116.89300610   183.81546435
 S     10   9   2     3.394637618115   115.92174955   179.12406157
 S      9   2   1     3.397564022146   117.32519373   185.54587366
 C     12   8   7     3.339644224955    96.98414654   359.81267499
 C     13  10   9     3.339903069322    97.35650851   357.09488218
 C     15  12   8     2.584551076317   124.80510906   179.63704943
 C     16  13  10     2.584268698329   121.47440659   183.02450063
 S     17  15  12     3.372038908086   120.94669345   177.06389226
 S     17  15  12     3.365178500076   122.79295961   358.42568556
 S     18  16  13     3.365469368456   123.42326827   181.54493412
 S     18  16  13     3.375934990761   120.34696890     2.94119459
 C     22  18  16     3.513360858751   100.15420980   120.13193379
 C     21  18  16     3.503142665794    96.21883903   246.52112906
 C     24  21  18     2.895049375301   111.51169917   294.90168598
 H     23  22  18     2.080895479535   108.24879008   285.61125077
 H     23  22  18     2.079548957987   104.63995519   170.55140496
 H     25  24  21     2.076945379507   108.72763936   188.74812168
 H     25  24  21     2.072547013671   108.88021940   305.34027817
 H     24  21  18     2.079503766495   106.72342086   173.95263426
 H     24  21  18     2.079165504098   107.77008805    57.70875265
 C     20  17  15     3.498853629155    97.16465383   114.80690545
 C     19  17  15     3.506472752966    99.58829213   240.81946653
 C     32  20  17     2.892373155637   112.29260195    62.37669672
 H     33  19  17     2.071804775704   108.25764045    71.54511697
 H     33  19  17     2.071593030211   104.81506336   186.75858839
 H     34  32  20     2.070293637564   109.03698517    56.09330455
 H     34  32  20     2.076939011307   108.52341298   172.66165569
 H     32  20  17     2.071515029414   106.22065583   183.32995487
 H     32  20  17     2.070586156898   107.86156832   299.30743720

---------------------
BASIS SET INFORMATION
---------------------
There are 5 groups of distinct atoms

 Group   1 Type V   : 17s11p5d1f contracted to 17s7p3d1f pattern {11111111111111111/3311111/311/1}
 Group   2 Type S   : 14s9p1d contracted to 5s4p1d pattern {73211/6111/1}
 Group   3 Type O   : 11s6p1d contracted to 5s3p1d pattern {62111/411/1}
 Group   4 Type C   : 11s6p1d contracted to 5s3p1d pattern {62111/411/1}
 Group   5 Type H   : 5s1p contracted to 3s1p pattern {311/1}

Atom   0V    basis set group =>   1
Atom   1S    basis set group =>   2
Atom   2S    basis set group =>   2
Atom   3S    basis set group =>   2
Atom   4S    basis set group =>   2
Atom   5O    basis set group =>   3
Atom   6C    basis set group =>   4
Atom   7C    basis set group =>   4
Atom   8C    basis set group =>   4
Atom   9C    basis set group =>   4
Atom  10S    basis set group =>   2
Atom  11S    basis set group =>   2
Atom  12S    basis set group =>   2
Atom  13S    basis set group =>   2
Atom  14C    basis set group =>   4
Atom  15C    basis set group =>   4
Atom  16C    basis set group =>   4
Atom  17C    basis set group =>   4
Atom  18S    basis set group =>   2
Atom  19S    basis set group =>   2
Atom  20S    basis set group =>   2
Atom  21S    basis set group =>   2
Atom  22C    basis set group =>   4
Atom  23C    basis set group =>   4
Atom  24C    basis set group =>   4
Atom  25H    basis set group =>   5
Atom  26H    basis set group =>   5
Atom  27H    basis set group =>   5
Atom  28H    basis set group =>   5
Atom  29H    basis set group =>   5
Atom  30H    basis set group =>   5
Atom  31C    basis set group =>   4
Atom  32C    basis set group =>   4
Atom  33C    basis set group =>   4
Atom  34H    basis set group =>   5
Atom  35H    basis set group =>   5
Atom  36H    basis set group =>   5
Atom  37H    basis set group =>   5
Atom  38H    basis set group =>   5
Atom  39H    basis set group =>   5

-------------------------
BASIS SET IN INPUT FORMAT
-------------------------

 # Basis set for element : H 
 NewGTO H 
 S 3 
   1      34.0613410000      0.0254393168
   2       5.1235746000      0.1900859340
   3       1.1646626000      0.8524411390
 S 1 
   1       0.3272304100      1.0000000000
 S 1 
   1       0.1030724100      1.0000000000
 P 1 
   1       0.8000000000      1.0000000000
  end;

 # Basis set for element : C 
 NewGTO C 
 S 6 
   1   13575.3496820000      0.0006064601
   2    2035.2333680000      0.0046978985
   3     463.2256235900      0.0243324735
   4     131.2001959800      0.0973999560
   5      42.8530158900      0.3019558443
   6      15.5841857700      0.6623361013
 S 2 
   1       6.2067138500      0.6559530795
   2       2.5764896500      0.3758563390
 S 1 
   1       0.5769633900      1.0000000000
 S 1 
   1       0.2297283100      1.0000000000
 S 1 
   1       0.0951644400      1.0000000000
 P 4 
   1      34.6972322400      0.0113272290
   2       7.9582622800      0.0761696612
   3       2.3780826900      0.3019225154
   4       0.8143320800      0.7278502776
 P 1 
   1       0.2888754700      1.0000000000
 P 1 
   1       0.1005682400      1.0000000000
 D 1 
   1       0.8000000000      1.0000000000
  end;

 # Basis set for element : O 
 NewGTO O 
 S 6 
   1   27032.3826310000      0.0005722654
   2    4052.3871392000      0.0044353333
   3     922.3272271000      0.0230201034
   4     261.2407098900      0.0928224938
   5      85.3546413500      0.2937849971
   6      31.0350352400      0.6740160462
 S 2 
   1      12.2608607300      0.6383993750
   2       4.9987076000      0.3953458663
 S 1 
   1       1.1703108200      1.0000000000
 S 1 
   1       0.4647474100      1.0000000000
 S 1 
   1       0.1850453600      1.0000000000
 P 4 
   1      63.2749548000      0.0120183316
   2      14.6270493800      0.0830054304
   3       4.4501223500      0.3199174388
   4       1.5275799600      0.7071554258
 P 1 
   1       0.5293511800      1.0000000000
 P 1 
   1       0.1747842100      1.0000000000
 D 1 
   1       1.2000000000      1.0000000000
  end;

 # Basis set for element : S 
 NewGTO S 
 S 7 
   1   60700.9281040000      0.0005238013
   2    9102.6106854000      0.0040506304
   3    2071.4166009000      0.0208270003
   4     586.0247682100      0.0814968475
   5     190.5539502100      0.2374911358
   6      67.6303842600      0.4472617145
   7      25.1273069100      0.3489191913
 S 3 
   1     112.5746301000      0.1004556993
   2      34.7955542200      0.4339117282
   3       6.5115556200     -1.2084330582
 S 2 
   1       3.2399032300      0.6749812922
   2       1.5477160900      0.3470879597
 S 1 
   1       0.4054103000      1.0000000000
 S 1 
   1       0.1455065100      1.0000000000
 P 6 
   1     564.3671602700      0.0025564845
   2     133.4262437900      0.0202874255
   3      42.4682711900      0.0927670112
   4      15.6165275800      0.2650208365
   5       6.1093988500      0.4486298663
   6       2.4404160200      0.3596369916
 P 1 
   1       0.8388220100      1.0000000000
 P 1 
   1       0.3128874700      1.0000000000
 P 1 
   1       0.1077010900      1.0000000000
 D 1 
   1       0.5500000000      1.0000000000
  end;

 # Basis set for element : V 
 NewGTO V 
 S 1 
   1  4239814.9912500000      1.0000000000
 S 1 
   1  1695925.9965000001      1.0000000000
 S 1 
   1  678370.3986000001      1.0000000000
 S 1 
   1  271348.1594400000      1.0000000000
 S 1 
   1   40672.0050780000      1.0000000000
 S 1 
   1    9257.0761385000      1.0000000000
 S 1 
   1    2622.7328773000      1.0000000000
 S 1 
   1     858.5948018500      1.0000000000
 S 1 
   1     314.1941865000      1.0000000000
 S 1 
   1     124.4786212700      1.0000000000
 S 1 
   1      50.4693993090      1.0000000000
 S 1 
   1      12.5138469110      1.0000000000
 S 1 
   1       5.3447758082      1.0000000000
 S 1 
   1       1.5755631295      1.0000000000
 S 1 
   1       0.6306903307      1.0000000000
 S 1 
   1       0.0879544416      1.0000000000
 S 1 
   1       0.0342969197      1.0000000000
 P 3 
   1    1450.0319327000     -0.0222847647
   2     343.7504988400     -0.1817959329
   3     110.8252170800     -0.8607412073
 P 3 
   1      41.8224645460     -0.2522537814
   2      17.0880737100     -0.4620379520
   3       7.2613218939     -0.3990010670
 P 1 
   1       2.9458145262      1.0000000000
 P 1 
   1       1.1650209680      1.0000000000
 P 1 
   1       0.4339937839      1.0000000000
 D 3 
   1      27.3603358640      0.0575501019
   2       7.4542765527      0.3023798347
   3       2.4632270217      0.7724212088
 D 1 
   1       0.8249954244      1.0000000000
 D 1 
   1       0.2526297057      1.0000000000
 P 1 
   1       0.1112480000      1.0000000000
 P 1 
   1       0.0363780000      1.0000000000
 F 1 
   1       1.8000000000      1.0000000000
  end;

---------------------------------
AUXILIARY/J BASIS SET INFORMATION
---------------------------------
There are 5 groups of distinct atoms

 Group   1 Type V   : 19s5p5d3f3g contracted to 8s5p5d2f3g pattern {121111111/11111/11111/21/111}
 Group   2 Type S   : 14s5p5d2f1g contracted to 8s4p3d1f1g pattern {71111111/2111/311/2/1}
 Group   3 Type O   : 12s5p4d2f1g contracted to 6s4p3d1f1g pattern {711111/2111/211/2/1}
 Group   4 Type C   : 12s5p4d2f1g contracted to 6s4p3d1f1g pattern {711111/2111/211/2/1}
 Group   5 Type H   : 5s2p1d contracted to 3s1p1d pattern {311/2/1}

Atom   0V    basis set group =>   1
Atom   1S    basis set group =>   2
Atom   2S    basis set group =>   2
Atom   3S    basis set group =>   2
Atom   4S    basis set group =>   2
Atom   5O    basis set group =>   3
Atom   6C    basis set group =>   4
Atom   7C    basis set group =>   4
Atom   8C    basis set group =>   4
Atom   9C    basis set group =>   4
Atom  10S    basis set group =>   2
Atom  11S    basis set group =>   2
Atom  12S    basis set group =>   2
Atom  13S    basis set group =>   2
Atom  14C    basis set group =>   4
Atom  15C    basis set group =>   4
Atom  16C    basis set group =>   4
Atom  17C    basis set group =>   4
Atom  18S    basis set group =>   2
Atom  19S    basis set group =>   2
Atom  20S    basis set group =>   2
Atom  21S    basis set group =>   2
Atom  22C    basis set group =>   4
Atom  23C    basis set group =>   4
Atom  24C    basis set group =>   4
Atom  25H    basis set group =>   5
Atom  26H    basis set group =>   5
Atom  27H    basis set group =>   5
Atom  28H    basis set group =>   5
Atom  29H    basis set group =>   5
Atom  30H    basis set group =>   5
Atom  31C    basis set group =>   4
Atom  32C    basis set group =>   4
Atom  33C    basis set group =>   4
Atom  34H    basis set group =>   5
Atom  35H    basis set group =>   5
Atom  36H    basis set group =>   5
Atom  37H    basis set group =>   5
Atom  38H    basis set group =>   5
Atom  39H    basis set group =>   5

-------------------------------------
AUXILIARY/J BASIS SET IN INPUT FORMAT
-------------------------------------

 # Auxiliary/J basis set for element : H 
 NewAuxJGTO H 
 S 3 
   1      15.6752927000      0.1007184237
   2       3.6063578000      0.3404257499
   3       1.2080016000      0.6491996172
 S 1 
   1       0.4726794000      1.0000000000
 S 1 
   1       0.2018100000      1.0000000000
 P 2 
   1       2.0281365000      0.5596620919
   2       0.5358730000      0.5596620919
 D 1 
   1       2.2165124000      1.0000000000
  end;

 # Auxiliary/J basis set for element : C 
 NewAuxJGTO C 
 S 7 
   1    1861.0916331000      0.0134602335
   2     642.9939764000      0.0299160374
   3     235.1105725000      0.1008649584
   4      90.7028894000      0.2370970548
   5      36.7794552000      0.3924037254
   6      15.6046273000      0.3195862154
   7       6.8907294000      0.0530104441
 S 1 
   1       3.1478850000     -1.0000000000
 S 1 
   1       1.4777287000      1.0000000000
 S 1 
   1       0.7076466000      1.0000000000
 S 1 
   1       0.3430122000      1.0000000000
 S 1 
   1       0.1669453000      1.0000000000
 P 2 
   1      13.5472892000     -0.6769313712
   2       5.4669419000     -0.3779500978
 P 1 
   1       2.1751721000      1.0000000000
 P 1 
   1       0.8582194000      1.0000000000
 P 1 
   1       0.3376720000      1.0000000000
 D 2 
   1       5.9287253000     -0.3533329857
   2       1.9809209000     -0.7456525731
 D 1 
   1       0.8055417000     -1.0000000000
 D 1 
   1       0.3531244000     -1.0000000000
 F 2 
   1       1.6755626000      0.6311076882
   2       0.5997536000      0.4968166032
 G 1 
   1       1.0024600000     -1.0000000000
  end;

 # Auxiliary/J basis set for element : O 
 NewAuxJGTO O 
 S 7 
   1    2876.8216605000      0.0168151159
   2    1004.7443032000      0.0340137548
   3     369.7579954000      0.1194951309
   4     142.9442404000      0.2664627624
   5      57.8366425000      0.4202764046
   6      24.3864983000      0.2765077335
   7      10.6622662000      0.0057008815
 S 1 
   1       4.8070437000     -1.0000000000
 S 1 
   1       2.2210770000      1.0000000000
 S 1 
   1       1.0447795000      1.0000000000
 S 1 
   1       0.4968425000      1.0000000000
 S 1 
   1       0.2371384000      1.0000000000
 P 2 
   1      64.2613382000     -0.2731534179
   2      16.3006076000     -0.8168011598
 P 1 
   1       4.3550542000      1.0000000000
 P 1 
   1       1.2019554000      1.0000000000
 P 1 
   1       0.3354196000      1.0000000000
 D 2 
   1       9.2146611000     -0.4661230638
   2       2.8435251000     -0.6600908911
 D 1 
   1       0.9955759000     -1.0000000000
 D 1 
   1       0.3649441000     -1.0000000000
 F 2 
   1       2.6420115000      0.5931563945
   2       0.7345613000      0.5931563945
 G 1 
   1       1.3931000000     -1.0000000000
  end;

 # Auxiliary/J basis set for element : S 
 NewAuxJGTO S 
 S 7 
   1    7399.0303145000      0.0295137551
   2    2710.1675859000      0.0559686311
   3    1034.3279062000      0.1764696370
   4     410.4645411000      0.3577969368
   5     168.9762502000      0.4299293578
   6      71.9687889000      0.1259148089
   7      31.6172683000     -0.0646025788
 S 1 
   1      14.2796836000      1.0000000000
 S 1 
   1       6.6060948000      1.0000000000
 S 1 
   1       3.1181477000      1.0000000000
 S 1 
   1       1.4954039000     -1.0000000000
 S 1 
   1       0.7254779000      1.0000000000
 S 1 
   1       0.3544216000      1.0000000000
 S 1 
   1       0.1735525000      1.0000000000
 P 2 
   1      12.6998799000      1.4059102813
   2       4.4295784000     -1.2124994202
 P 1 
   1       1.5232889000      1.0000000000
 P 1 
   1       0.5194667000     -1.0000000000
 P 1 
   1       0.1766547000     -1.0000000000
 D 3 
   1      16.8546461000      1.0295742104
   2       5.0810461000     -0.7461553923
   3       1.5102323000      0.8357028005
 D 1 
   1       0.4451331000      1.0000000000
 D 1 
   1       0.1308362000      1.0000000000
 F 2 
   1       1.0809860000      0.5572698934
   2       0.4161474000      0.5572698934
 G 1 
   1       0.6707100000     -1.0000000000
  end;

 # Auxiliary/J basis set for element : V 
 NewAuxJGTO V 
 S 12 
   1   11942.0842430000      0.0459866720
   2    2430.7110193000      0.1744615821
   3     841.0764301000      0.2900402792
   4     494.7508273000      0.1411212903
   5     291.0298903000      0.2660697186
   6     171.1940483000      0.0446365706
   7      59.2366916000     -0.0408204801
   8      34.8451117000      0.1394665381
   9      20.4971240000      0.2164746715
  10      12.0571314000      0.0864266611
  11       7.0924300000     -0.0568501658
  12       4.1720176000     -0.0126212852
 S 1 
   1       2.4541279000      1.0000000000
 S 1 
   1       1.4436046000      1.0000000000
 S 1 
   1       0.8491792000      1.0000000000
 S 1 
   1       0.2938336000      1.0000000000
 S 1 
   1       0.1728433000      1.0000000000
 S 1 
   1       0.1016725000      1.0000000000
 S 1 
   1       0.0598074000      1.0000000000
 P 1 
   1      16.7130979000     -1.0000000000
 P 1 
   1       4.7454037000     -1.0000000000
 P 1 
   1       1.3889998000      1.0000000000
 P 1 
   1       0.4142440000     -1.0000000000
 P 1 
   1       0.1243234000      1.0000000000
 D 1 
   1       7.7143225000      1.0000000000
 D 1 
   1       3.1170731000      1.0000000000
 D 1 
   1       1.2767950000     -1.0000000000
 D 1 
   1       0.5273386000      1.0000000000
 D 1 
   1       0.2184050000      1.0000000000
 F 2 
   1       3.1309344000     -1.0825667766
   2       1.0419780000      0.1809223232
 F 1 
   1       0.3559044000      1.0000000000
 G 1 
   1       8.7130110000      1.0000000000
 G 1 
   1       2.7493872000      1.0000000000
 G 1 
   1       0.8775089000      1.0000000000
  end;



           ************************************************************
           *        Program running with 8 parallel MPI-processes     *
           *              working on a common directory               *
           ************************************************************
------------------------------------------------------------------------------
                           ORCA GTO INTEGRAL CALCULATION
                           -- RI-GTO INTEGRALS CHOSEN --
------------------------------------------------------------------------------
------------------------------------------------------------------------------
                   ___                                                        
                  /   \      - P O W E R E D   B Y -                         
                 /     \                                                     
                 |  |  |   _    _      __       _____    __    __             
                 |  |  |  | |  | |    /  \     |  _  \  |  |  /  |          
                  \  \/   | |  | |   /    \    | | | |  |  | /  /          
                 / \  \   | |__| |  /  /\  \   | |_| |  |  |/  /          
                |  |  |   |  __  | /  /__\  \  |    /   |      \           
                |  |  |   | |  | | |   __   |  |    \   |  |\   \          
                \     /   | |  | | |  |  |  |  | |\  \  |  | \   \       
                 \___/    |_|  |_| |__|  |__|  |_| \__\ |__|  \__/        
                                                                              
                      - O R C A' S   B I G   F R I E N D -                    
                                      &                                       
                       - I N T E G R A L  F E E D E R -                       
                                                                              
 v1 FN, 2020, v2 2021                                                         
------------------------------------------------------------------------------


Reading SHARK input file input_19.SHARKINP.tmp ... ok
----------------------
SHARK INTEGRAL PACKAGE
----------------------

Number of atoms                             ...     40
Number of basis functions                   ...    681
Number of shells                            ...    331
Maximum angular momentum                    ...      3
Integral batch strategy                     ... SHARK/LIBINT Hybrid
RI-J (if used) integral strategy            ... SPLIT-RIJ (Revised 2003 algorithm where possible)
Printlevel                                  ...      1
Contraction scheme used                     ... SEGMENTED contraction
Coulomb Range Separation                    ... NOT USED
Exchange Range Separation                   ... NOT USED
Finite Nucleus Model                        ... NOT USED
Auxiliary Coulomb fitting basis             ... AVAILABLE
   # of basis functions in Aux-J            ...   1568
   # of shells in Aux-J                     ...    512
   Maximum angular momentum in Aux-J        ...      4
Auxiliary J/K fitting basis                 ... NOT available
Auxiliary Correlation fitting basis         ... NOT available
Auxiliary 'external' fitting basis          ... NOT available
Integral threshold                          ...     1.000000e-10
Primitive cut-off                           ...     1.000000e-11
Primitive pair pre-selection threshold      ...     1.000000e-11

Calculating pre-screening integrals         ... done (  0.1 sec) Dimension = 331
Organizing shell pair data                  ... done (  0.1 sec)
Shell pair information
Total number of shell pairs                 ...     54946
Shell pairs after pre-screening             ...     22686
Total number of primitive shell pairs       ...    221635
Primitive shell pairs kept                  ...     55395
          la=0 lb=0:   6423 shell pairs
          la=1 lb=0:   9078 shell pairs
          la=1 lb=1:   3200 shell pairs
          la=2 lb=0:   2124 shell pairs
          la=2 lb=1:   1540 shell pairs
          la=2 lb=2:    197 shell pairs
          la=3 lb=0:     57 shell pairs
          la=3 lb=1:     54 shell pairs
          la=3 lb=2:     12 shell pairs
          la=3 lb=3:      1 shell pairs

Calculating one electron integrals          ... done (  0.0 sec)
Calculating RI/J V-Matrix + Cholesky decomp.... done (  0.1 sec)
Calculating Nuclear repulsion               ... done (  0.0 sec) ENN=   5061.702639999279 Eh

SHARK setup successfully completed in   0.6 seconds

Maximum memory used throughout the entire GTOINT-calculation: 39.8 MB


           ************************************************************
           *        Program running with 8 parallel MPI-processes     *
           *              working on a common directory               *
           ************************************************************
-------------------------------------------------------------------------------
                                 ORCA SCF
-------------------------------------------------------------------------------

------------
SCF SETTINGS
------------
Hamiltonian:
 Density Functional     Method          .... DFT(GTOs)
 Exchange Functional    Exchange        .... B88
   X-Alpha parameter    XAlpha          ....  0.666667
   Becke's b parameter  XBeta           ....  0.004200
 Correlation Functional Correlation     .... LYP
 LDA part of GGA corr.  LDAOpt          .... VWN-5
 Gradients option       PostSCFGGA      .... off
 Hybrid DFT is turned on
   Fraction HF Exchange ScalHFX         ....  0.200000
   Scaling of DF-GGA-X  ScalDFX         ....  0.720000
   Scaling of DF-GGA-C  ScalDFC         ....  0.810000
   Scaling of DF-LDA-C  ScalLDAC        ....  1.000000
   Perturbative correction              ....  0.000000
   Density functional embedding theory  .... OFF
   NL short-range parameter             ....  4.800000
 RI-approximation to the Coulomb term is turned on
   Number of AuxJ basis functions       .... 1568
   RIJ-COSX (HFX calculated with COS-X)).... on


General Settings:
 Integral files         IntName         .... input_19
 Hartree-Fock type      HFTyp           .... UHF
 Total Charge           Charge          ....   -2
 Multiplicity           Mult            ....    2
 Number of Electrons    NEL             ....  321
 Basis Dimension        Dim             ....  681
 Nuclear Repulsion      ENuc            ....   5061.7026399993 Eh

Convergence Acceleration:
 DIIS                   CNVDIIS         .... on
   Start iteration      DIISMaxIt       ....    12
   Startup error        DIISStart       ....  0.200000
   # of expansion vecs  DIISMaxEq       ....     5
   Bias factor          DIISBfac        ....   1.050
   Max. coefficient     DIISMaxC        ....  10.000
 Trust-Rad. Augm. Hess. CNVTRAH         .... auto
   Auto Start mean grad. ratio tolernc. ....  1.125000
   Auto Start start iteration           ....    20
   Auto Start num. interpolation iter.  ....    10
   Max. Number of Micro iterations      ....    16
   Max. Number of Macro iterations      .... Maxiter - #DIIS iter
   Number of Davidson start vectors     ....     2
   Converg. threshold I  (grad. norm)   ....   5.000e-05
   Converg. threshold II (energy diff.) ....   1.000e-06
   Grad. Scal. Fac. for Micro threshold ....   0.100
   Minimum threshold for Micro iter.    ....   0.010
   NR start threshold (gradient norm)   ....   0.001
   Initial trust radius                 ....   0.400
   Minimum AH scaling param. (alpha)    ....   1.000
   Maximum AH scaling param. (alpha)    .... 1000.000
   Orbital update algorithm             .... Taylor
   White noise on init. David. guess    .... on
   Maximum white noise                  ....   0.010
   Quad. conv. algorithm                .... NR
 SOSCF                  CNVSOSCF        .... off
 Level Shifting         CNVShift        .... on
   Level shift para.    LevelShift      ....    0.2500
   Turn off err/grad.   ShiftErr        ....    0.0010
 Zerner damping         CNVZerner       .... off
 Static damping         CNVDamp         .... on
   Fraction old density DampFac         ....    0.7000
   Max. Damping (<1)    DampMax         ....    0.9800
   Min. Damping (>=0)   DampMin         ....    0.0000
   Turn off err/grad.   DampErr         ....    0.1000
 Fernandez-Rico         CNVRico         .... off

SCF Procedure:
 Maximum # iterations   MaxIter         ....   125
 SCF integral mode      SCFMode         .... Direct
   Integral package                     .... SHARK and LIBINT hybrid scheme
 Reset frequency        DirectResetFreq ....    20
 Integral Threshold     Thresh          ....  1.000e-10 Eh
 Primitive CutOff       TCut            ....  1.000e-11 Eh

Convergence Tolerance:
 Convergence Check Mode ConvCheckMode   .... Total+1el-Energy
 Convergence forced     ConvForced      .... 0
 Energy Change          TolE            ....  1.000e-06 Eh
 1-El. energy change                    ....  1.000e-03 Eh
 DIIS Error             TolErr          ....  1.000e-06


Diagonalization of the overlap matrix:
Smallest eigenvalue                        ... 8.573e-05
Time for diagonalization                   ...    0.185 sec
Threshold for overlap eigenvalues          ... 1.000e-08
Number of eigenvalues below threshold      ... 0
Time for construction of square roots      ...    0.159 sec
Total time needed                          ...    0.346 sec

Time for model grid setup =    0.353 sec

------------------------------
INITIAL GUESS: MODEL POTENTIAL
------------------------------
Loading Hartree-Fock densities                     ... done
Calculating cut-offs                               ... done
Initializing the effective Hamiltonian             ... done
Setting up the integral package (SHARK)            ... done
Starting the Coulomb interaction                   ... done (   0.3 sec)
Reading the grid                                   ... done
Mapping shells                                     ... done
Starting the XC term evaluation                    ... done (   0.2 sec)
  promolecular density results
     # of electrons  =    318.989952957
     EX              =   -428.251556289
     EC              =    -12.536329485
     EX+EC           =   -440.787885773
Transforming the Hamiltonian                       ... done (   0.2 sec)
Diagonalizing the Hamiltonian                      ... done (   0.2 sec)
Back transforming the eigenvectors                 ... done (   0.1 sec)
Now organizing SCF variables                       ... done
                      ------------------
                      INITIAL GUESS DONE (   1.3 sec)
                      ------------------
-------------------
DFT GRID GENERATION
-------------------

General Integration Accuracy     IntAcc      ... 4.388
Radial Grid Type                 RadialGrid  ... OptM3 with GC (2021)
Angular Grid (max. ang.)         AngularGrid ... 4 (Lebedev-302)
Angular grid pruning method      GridPruning ... 4 (adaptive)
Weight generation scheme         WeightScheme... Becke
Basis function cutoff            BFCut       ... 1.0000e-10
Integration weight cutoff        WCut        ... 1.0000e-14
Angular grids for H and He will be reduced by one unit
Partially contracted basis set               ... off
Rotationally invariant grid construction     ... off

Total number of grid points                  ...   237339
Total number of batches                      ...     3729
Average number of points per batch           ...       63
Average number of grid points per atom       ...     5933
Time for grid setup =    1.795 sec

--------------------
COSX GRID GENERATION
--------------------

GRIDX 1
-------
General Integration Accuracy     IntAcc      ... 3.816
Radial Grid Type                 RadialGrid  ... OptM3 with GC (2021)
Angular Grid (max. ang.)         AngularGrid ... 1 (Lebedev-50)
Angular grid pruning method      GridPruning ... 4 (adaptive)
Weight generation scheme         WeightScheme... Becke
Basis function cutoff            BFCut       ... 1.0000e-10
Integration weight cutoff        WCut        ... 1.0000e-14
Angular grids for H and He will be reduced by one unit
Partially contracted basis set               ... on
Rotationally invariant grid construction     ... off

Total number of grid points                  ...    29207
Total number of batches                      ...      480
Average number of points per batch           ...       60
Average number of grid points per atom       ...      730
UseSFitting                                  ... on

GRIDX 2
-------
General Integration Accuracy     IntAcc      ... 4.020
Radial Grid Type                 RadialGrid  ... OptM3 with GC (2021)
Angular Grid (max. ang.)         AngularGrid ... 2 (Lebedev-110)
Angular grid pruning method      GridPruning ... 4 (adaptive)
Weight generation scheme         WeightScheme... Becke
Basis function cutoff            BFCut       ... 1.0000e-10
Integration weight cutoff        WCut        ... 1.0000e-14
Angular grids for H and He will be reduced by one unit
Partially contracted basis set               ... on
Rotationally invariant grid construction     ... off

Total number of grid points                  ...    64070
Total number of batches                      ...     1021
Average number of points per batch           ...       62
Average number of grid points per atom       ...     1602
UseSFitting                                  ... on

GRIDX 3
-------
General Integration Accuracy     IntAcc      ... 4.338
Radial Grid Type                 RadialGrid  ... OptM3 with GC (2021)
Angular Grid (max. ang.)         AngularGrid ... 3 (Lebedev-194)
Angular grid pruning method      GridPruning ... 4 (adaptive)
Weight generation scheme         WeightScheme... Becke
Basis function cutoff            BFCut       ... 1.0000e-10
Integration weight cutoff        WCut        ... 1.0000e-14
Angular grids for H and He will be reduced by one unit
Partially contracted basis set               ... on
Rotationally invariant grid construction     ... off

Total number of grid points                  ...   147252
Total number of batches                      ...     2322
Average number of points per batch           ...       63
Average number of grid points per atom       ...     3681
UseSFitting                                  ... on

Time for X-Grid setup             =    1.910 sec

--------------
SCF ITERATIONS
--------------
ITER       Energy         Delta-E        Max-DP      RMS-DP      [F,P]     Damp
               ***  Starting incremental Fock matrix formation  ***
  0  -6336.8834876469   0.000000000000 0.05231602  0.00066362  0.2247201 0.7000
  1  -6337.2206621091  -0.337174462228 0.11751474  0.00063462  0.1558770 0.7000
                               ***Turning on DIIS***
  2  -6337.3849266146  -0.164264505474 0.05518472  0.00033632  0.1090897 0.7000
  3  -6337.4753848222  -0.090458207647 0.04798019  0.00057021  0.0771990 0.0000
  4  -6337.6950367219  -0.219651899655 0.06942434  0.00032656  0.0132931 0.0000
  5  -6337.7008613463  -0.005824624384 0.01388614  0.00008635  0.0107054 0.0000
  6  -6337.7022781083  -0.001416762050 0.00337586  0.00004086  0.0040084 0.0000
  7  -6337.7026833934  -0.000405285013 0.00171922  0.00002376  0.0014364 0.0000
  8  -6337.7028687463  -0.000185352977 0.00281596  0.00002028  0.0015245 0.0000
  9  -6337.7029884771  -0.000119730808 0.00165432  0.00001617  0.0010543 0.0000
 10  -6337.7030661755  -0.000077698402 0.00310125  0.00003797  0.0005570 0.0000
               *** Restarting incremental Fock matrix formation ***
                                   *** Resetting DIIS ***
 11  -6337.7031814795  -0.000115303963 0.00111598  0.00001098  0.0007686 0.0000
 12  -6337.7031489906   0.000032488885 0.00040726  0.00000274  0.0023290 0.0000
 13  -6337.7031848901  -0.000035899491 0.00062595  0.00000480  0.0007955 0.0000
 14  -6337.7031906599  -0.000005769790 0.00018993  0.00000247  0.0002494 0.0000
 15  -6337.7031914820  -0.000000822070 0.00014392  0.00000144  0.0001544 0.0000
 16  -6337.7031919380  -0.000000456036 0.00012026  0.00000103  0.0000811 0.0000
 17  -6337.7031922908  -0.000000352775 0.00007504  0.00000080  0.0000765 0.0000
                 **** Energy Check signals convergence ****

               *****************************************************
               *                     SUCCESS                       *
               *           SCF CONVERGED AFTER  18 CYCLES          *
               *****************************************************

Old exchange energy                            =    -85.924903666 Eh
New exchange energy                            =    -85.924889256 Eh
Exchange energy change after final integration =      0.000014410 Eh
Total energy after final integration           =  -6337.703177939 Eh
Final COS-X integration done in                =    21.349 sec

----------------
TOTAL SCF ENERGY
----------------

Total Energy       :        -6337.70317794 Eh         -172457.67105 eV

Components:
Nuclear Repulsion  :         5061.70264000 Eh          137735.93119 eV
Electronic Energy  :       -11399.40581794 Eh         -310193.60224 eV
One Electron Energy:       -18893.81205089 Eh         -514126.76360 eV
Two Electron Energy:         7494.40623295 Eh          203933.16136 eV
Max COSX asymmetry :            0.00000249 Eh               0.00007 eV

Virial components:
Potential Energy   :       -12658.90577227 Eh         -344466.33839 eV
Kinetic Energy     :         6321.20259434 Eh          172008.66734 eV
Virial Ratio       :            2.00261036


DFT components:
N(Alpha)           :      161.000028906767 electrons
N(Beta)            :      160.000024158460 electrons
N(Total)           :      321.000053065227 electrons
E(X)               :     -341.451675726083 Eh       
E(C)               :      -14.720468559089 Eh       
E(XC)              :     -356.172144285172 Eh       
DFET-embed. en.    :        0.000000000000 Eh       

---------------
SCF CONVERGENCE
---------------

  Last Energy change         ...   -5.8149e-08  Tolerance :   1.0000e-06
  Last MAX-Density change    ...    0.0000e+00  Tolerance :   1.0000e-05
  Last RMS-Density change    ...    0.0000e+00  Tolerance :   1.0000e-06
  Last DIIS Error            ...    1.5773e-05  Tolerance :   1.0000e-06

             **** THE GBW FILE WAS UPDATED (input_19.gbw) ****
             **** DENSITY input_19.scfp WAS UPDATED ****
             **** ENERGY FILE WAS UPDATED (input_19.en.tmp) ****
----------------------
UHF SPIN CONTAMINATION
----------------------

Warning: in a DFT calculation there is little theoretical justification to 
         calculate <S**2> as in Hartree-Fock theory. We will do it anyways
         but you should keep in mind that the values have only limited relevance

Expectation value of <S**2>     :     0.765628
Ideal value S*(S+1) for S=0.5   :     0.750000
Deviation                       :     0.015628

             **** THE GBW FILE WAS UPDATED (input_19.gbw) ****
             **** DENSITY input_19.scfp WAS UPDATED ****
----------------
ORBITAL ENERGIES
----------------
                 SPIN UP ORBITALS
  NO   OCC          E(Eh)            E(eV) 
   0   1.0000    -196.674441     -5351.7836 
   1   1.0000     -88.734234     -2414.5813 
   2   1.0000     -88.733726     -2414.5674 
   3   1.0000     -88.732592     -2414.5366 
   4   1.0000     -88.732387     -2414.5310 
   5   1.0000     -88.731032     -2414.4941 
   6   1.0000     -88.730520     -2414.4802 
   7   1.0000     -88.729264     -2414.4460 
   8   1.0000     -88.728717     -2414.4311 
   9   1.0000     -88.639628     -2412.0069 
  10   1.0000     -88.639425     -2412.0014 
  11   1.0000     -88.639129     -2411.9933 
  12   1.0000     -88.638950     -2411.9884 
  13   1.0000     -22.049845      -600.0068 
  14   1.0000     -18.889719      -514.0154 
  15   1.0000     -18.556281      -504.9421 
  16   1.0000     -18.551137      -504.8021 
  17   1.0000     -18.551012      -504.7987 
  18   1.0000     -10.075591      -274.1708 
  19   1.0000     -10.075459      -274.1672 
  20   1.0000     -10.065837      -273.9054 
  21   1.0000     -10.064713      -273.8748 
  22   1.0000     -10.064440      -273.8673 
  23   1.0000     -10.063656      -273.8460 
  24   1.0000     -10.051804      -273.5235 
  25   1.0000     -10.051510      -273.5155 
  26   1.0000     -10.048557      -273.4351 
  27   1.0000     -10.048120      -273.4233 
  28   1.0000     -10.017996      -272.6035 
  29   1.0000     -10.017771      -272.5974 
  30   1.0000     -10.016980      -272.5759 
  31   1.0000     -10.016911      -272.5740 
  32   1.0000      -7.787642      -211.9125 
  33   1.0000      -7.787169      -211.8996 
  34   1.0000      -7.785950      -211.8665 
  35   1.0000      -7.785691      -211.8594 
  36   1.0000      -7.784169      -211.8180 
  37   1.0000      -7.783752      -211.8067 
  38   1.0000      -7.782563      -211.7743 
  39   1.0000      -7.782078      -211.7611 
  40   1.0000      -7.694394      -209.3751 
  41   1.0000      -7.694042      -209.3655 
  42   1.0000      -7.693070      -209.3391 
  43   1.0000      -7.692877      -209.3338 
  44   1.0000      -5.752566      -156.5353 
  45   1.0000      -5.752115      -156.5230 
  46   1.0000      -5.750985      -156.4923 
  47   1.0000      -5.750763      -156.4862 
  48   1.0000      -5.749330      -156.4472 
  49   1.0000      -5.749133      -156.4419 
  50   1.0000      -5.748814      -156.4332 
  51   1.0000      -5.748710      -156.4304 
  52   1.0000      -5.747501      -156.3974 
  53   1.0000      -5.747488      -156.3971 
  54   1.0000      -5.747192      -156.3891 
  55   1.0000      -5.747013      -156.3842 
  56   1.0000      -5.744698      -156.3212 
  57   1.0000      -5.744252      -156.3091 
  58   1.0000      -5.743080      -156.2771 
  59   1.0000      -5.742596      -156.2640 
  60   1.0000      -5.742414      -156.2590 
  61   1.0000      -5.741944      -156.2462 
  62   1.0000      -5.740744      -156.2136 
  63   1.0000      -5.740487      -156.2066 
  64   1.0000      -5.739998      -156.1933 
  65   1.0000      -5.739589      -156.1821 
  66   1.0000      -5.738374      -156.1491 
  67   1.0000      -5.737876      -156.1355 
  68   1.0000      -5.659656      -154.0071 
  69   1.0000      -5.659311      -153.9977 
  70   1.0000      -5.658447      -153.9742 
  71   1.0000      -5.658229      -153.9682 
  72   1.0000      -5.652973      -153.8252 
  73   1.0000      -5.652613      -153.8154 
  74   1.0000      -5.651812      -153.7936 
  75   1.0000      -5.651749      -153.7919 
  76   1.0000      -5.651624      -153.7885 
  77   1.0000      -5.651423      -153.7830 
  78   1.0000      -5.650324      -153.7531 
  79   1.0000      -5.650146      -153.7483 
  80   1.0000      -2.443566       -66.4928 
  81   1.0000      -1.484794       -40.4033 
  82   1.0000      -1.473279       -40.0900 
  83   1.0000      -1.472435       -40.0670 
  84   1.0000      -0.709121       -19.2962 
  85   1.0000      -0.708802       -19.2875 
  86   1.0000      -0.685103       -18.6426 
  87   1.0000      -0.684507       -18.6264 
  88   1.0000      -0.649330       -17.6692 
  89   1.0000      -0.630970       -17.1696 
  90   1.0000      -0.630604       -17.1596 
  91   1.0000      -0.616454       -16.7746 
  92   1.0000      -0.615420       -16.7464 
  93   1.0000      -0.574156       -15.6236 
  94   1.0000      -0.573990       -15.6191 
  95   1.0000      -0.573108       -15.5951 
  96   1.0000      -0.572119       -15.5681 
  97   1.0000      -0.496719       -13.5164 
  98   1.0000      -0.496022       -13.4974 
  99   1.0000      -0.494841       -13.4653 
 100   1.0000      -0.494061       -13.4441 
 101   1.0000      -0.479382       -13.0446 
 102   1.0000      -0.476811       -12.9747 
 103   1.0000      -0.446492       -12.1497 
 104   1.0000      -0.444222       -12.0879 
 105   1.0000      -0.416058       -11.3215 
 106   1.0000      -0.410843       -11.1796 
 107   1.0000      -0.354645        -9.6504 
 108   1.0000      -0.353812        -9.6277 
 109   1.0000      -0.326287        -8.8787 
 110   1.0000      -0.325726        -8.8635 
 111   1.0000      -0.318580        -8.6690 
 112   1.0000      -0.314040        -8.5455 
 113   1.0000      -0.304643        -8.2898 
 114   1.0000      -0.303836        -8.2678 
 115   1.0000      -0.291223        -7.9246 
 116   1.0000      -0.289645        -7.8816 
 117   1.0000      -0.257461        -7.0059 
 118   1.0000      -0.257090        -6.9958 
 119   1.0000      -0.255232        -6.9452 
 120   1.0000      -0.254950        -6.9375 
 121   1.0000      -0.234630        -6.3846 
 122   1.0000      -0.234201        -6.3729 
 123   1.0000      -0.230457        -6.2711 
 124   1.0000      -0.229171        -6.2361 
 125   1.0000      -0.219552        -5.9743 
 126   1.0000      -0.217774        -5.9259 
 127   1.0000      -0.213803        -5.8179 
 128   1.0000      -0.211318        -5.7502 
 129   1.0000      -0.192870        -5.2482 
 130   1.0000      -0.187437        -5.1004 
 131   1.0000      -0.185676        -5.0525 
 132   1.0000      -0.183906        -5.0043 
 133   1.0000      -0.179052        -4.8722 
 134   1.0000      -0.159324        -4.3354 
 135   1.0000      -0.151558        -4.1241 
 136   1.0000      -0.146797        -3.9946 
 137   1.0000      -0.135953        -3.6995 
 138   1.0000      -0.134007        -3.6465 
 139   1.0000      -0.132018        -3.5924 
 140   1.0000      -0.124748        -3.3946 
 141   1.0000      -0.120783        -3.2867 
 142   1.0000      -0.113057        -3.0764 
 143   1.0000      -0.109277        -2.9736 
 144   1.0000      -0.099607        -2.7104 
 145   1.0000      -0.098024        -2.6674 
 146   1.0000      -0.096608        -2.6288 
 147   1.0000      -0.094121        -2.5612 
 148   1.0000      -0.074467        -2.0263 
 149   1.0000      -0.067593        -1.8393 
 150   1.0000      -0.067005        -1.8233 
 151   1.0000      -0.051823        -1.4102 
 152   1.0000      -0.045466        -1.2372 
 153   1.0000      -0.037023        -1.0074 
 154   1.0000      -0.036179        -0.9845 
 155   1.0000      -0.030857        -0.8397 
 156   1.0000      -0.024978        -0.6797 
 157   1.0000      -0.018260        -0.4969 
 158   1.0000      -0.015170        -0.4128 
 159   1.0000       0.020823         0.5666 
 160   1.0000       0.041621         1.1326 
 161   0.0000       0.136741         3.7209 
 162   0.0000       0.136892         3.7250 
 163   0.0000       0.161857         4.4044 
 164   0.0000       0.161936         4.4065 
 165   0.0000       0.170304         4.6342 
 166   0.0000       0.170668         4.6441 
 167   0.0000       0.173236         4.7140 
 168   0.0000       0.173753         4.7281 
 169   0.0000       0.175645         4.7795 
 170   0.0000       0.177168         4.8210 
 171   0.0000       0.178195         4.8489 
 172   0.0000       0.189783         5.1642 
 173   0.0000       0.190993         5.1972 
 174   0.0000       0.197931         5.3860 
 175   0.0000       0.198219         5.3938 
 176   0.0000       0.202152         5.5008 
 177   0.0000       0.203621         5.5408 
 178   0.0000       0.208100         5.6627 
 179   0.0000       0.210866         5.7379 
 180   0.0000       0.212450         5.7811 
 181   0.0000       0.215491         5.8638 
 182   0.0000       0.217470         5.9176 
 183   0.0000       0.219347         5.9687 
 184   0.0000       0.227365         6.1869 
 185   0.0000       0.230373         6.2688 
 186   0.0000       0.231481         6.2989 
 187   0.0000       0.236454         6.4342 
 188   0.0000       0.237020         6.4496 
 189   0.0000       0.239527         6.5179 
 190   0.0000       0.246281         6.7016 
 191   0.0000       0.247555         6.7363 
 192   0.0000       0.249546         6.7905 
 193   0.0000       0.259038         7.0488 
 194   0.0000       0.261303         7.1104 
 195   0.0000       0.267053         7.2669 
 196   0.0000       0.271254         7.3812 
 197   0.0000       0.273239         7.4352 
 198   0.0000       0.274285         7.4637 
 199   0.0000       0.276594         7.5265 
 200   0.0000       0.286569         7.7979 
 201   0.0000       0.288050         7.8382 
 202   0.0000       0.301852         8.2138 
 203   0.0000       0.309051         8.4097 
 204   0.0000       0.310694         8.4544 
 205   0.0000       0.324013         8.8168 
 206   0.0000       0.331917         9.0319 
 207   0.0000       0.332954         9.0601 
 208   0.0000       0.336193         9.1483 
 209   0.0000       0.342987         9.3332 
 210   0.0000       0.348542         9.4843 
 211   0.0000       0.349265         9.5040 
 212   0.0000       0.351761         9.5719 
 213   0.0000       0.356767         9.7081 
 214   0.0000       0.360284         9.8038 
 215   0.0000       0.370033        10.0691 
 216   0.0000       0.373884        10.1739 
 217   0.0000       0.376402        10.2424 
 218   0.0000       0.382955        10.4207 
 219   0.0000       0.384056        10.4507 
 220   0.0000       0.389329        10.5942 
 221   0.0000       0.392441        10.6789 
 222   0.0000       0.393479        10.7071 
 223   0.0000       0.398485        10.8433 
 224   0.0000       0.401441        10.9238 
 225   0.0000       0.403640        10.9836 
 226   0.0000       0.404181        10.9983 
 227   0.0000       0.409688        11.1482 
 228   0.0000       0.412435        11.2229 
 229   0.0000       0.419324        11.4104 
 230   0.0000       0.421462        11.4686 
 231   0.0000       0.426565        11.6074 
 232   0.0000       0.430221        11.7069 
 233   0.0000       0.434516        11.8238 
 234   0.0000       0.437000        11.8914 
 235   0.0000       0.440842        11.9959 
 236   0.0000       0.447598        12.1798 
 237   0.0000       0.452937        12.3250 
 238   0.0000       0.456378        12.4187 
 239   0.0000       0.464174        12.6308 
 240   0.0000       0.468526        12.7492 
 241   0.0000       0.471635        12.8338 
 242   0.0000       0.473622        12.8879 
 243   0.0000       0.475324        12.9342 
 244   0.0000       0.477208        12.9855 
 245   0.0000       0.478768        13.0279 
 246   0.0000       0.480321        13.0702 
 247   0.0000       0.485159        13.2019 
 248   0.0000       0.487406        13.2630 
 249   0.0000       0.492593        13.4041 
 250   0.0000       0.495585        13.4855 
 251   0.0000       0.502222        13.6662 
 252   0.0000       0.503763        13.7081 
 253   0.0000       0.506730        13.7888 
 254   0.0000       0.509793        13.8722 
 255   0.0000       0.513278        13.9670 
 256   0.0000       0.516009        14.0413 
 257   0.0000       0.518808        14.1175 
 258   0.0000       0.523546        14.2464 
 259   0.0000       0.524794        14.2804 
 260   0.0000       0.525685        14.3046 
 261   0.0000       0.526228        14.3194 
 262   0.0000       0.527756        14.3610 
 263   0.0000       0.528526        14.3819 
 264   0.0000       0.530737        14.4421 
 265   0.0000       0.532360        14.4863 
 266   0.0000       0.535490        14.5714 
 267   0.0000       0.544244        14.8096 
 268   0.0000       0.546935        14.8828 
 269   0.0000       0.550155        14.9705 
 270   0.0000       0.552845        15.0437 
 271   0.0000       0.554105        15.0780 
 272   0.0000       0.560381        15.2488 
 273   0.0000       0.564248        15.3540 
 274   0.0000       0.570067        15.5123 
 275   0.0000       0.571821        15.5600 
 276   0.0000       0.573493        15.6055 
 277   0.0000       0.577017        15.7014 
 278   0.0000       0.578903        15.7528 
 279   0.0000       0.579527        15.7697 
 280   0.0000       0.583997        15.8914 
 281   0.0000       0.587084        15.9754 
 282   0.0000       0.592819        16.1314 
 283   0.0000       0.597767        16.2661 
 284   0.0000       0.603566        16.4239 
 285   0.0000       0.604632        16.4529 
 286   0.0000       0.607272        16.5247 
 287   0.0000       0.613227        16.6868 
 288   0.0000       0.615509        16.7489 
 289   0.0000       0.616994        16.7893 
 290   0.0000       0.621629        16.9154 
 291   0.0000       0.624131        16.9835 
 292   0.0000       0.630293        17.1512 
 293   0.0000       0.634110        17.2550 
 294   0.0000       0.639476        17.4010 
 295   0.0000       0.639853        17.4113 
 296   0.0000       0.642157        17.4740 
 297   0.0000       0.644978        17.5507 
 298   0.0000       0.656408        17.8618 
 299   0.0000       0.659960        17.9584 
 300   0.0000       0.666208        18.1284 
 301   0.0000       0.676854        18.4181 
 302   0.0000       0.686363        18.6769 
 303   0.0000       0.699700        19.0398 
 304   0.0000       0.712664        19.3926 
 305   0.0000       0.715275        19.4636 
 306   0.0000       0.717387        19.5211 
 307   0.0000       0.729038        19.8381 
 308   0.0000       0.735786        20.0218 
 309   0.0000       0.742931        20.2162 
 310   0.0000       0.749024        20.3820 
 311   0.0000       0.764282        20.7972 
 312   0.0000       0.765053        20.8182 
 313   0.0000       0.767799        20.8929 
 314   0.0000       0.770362        20.9626 
 315   0.0000       0.781776        21.2732 
 316   0.0000       0.786682        21.4067 
 317   0.0000       0.795401        21.6440 
 318   0.0000       0.796722        21.6799 
 319   0.0000       0.813249        22.1296 
 320   0.0000       0.819637        22.3035 
 321   0.0000       0.822182        22.3727 
 322   0.0000       0.825657        22.4673 
 323   0.0000       0.833430        22.6788 
 324   0.0000       0.844611        22.9830 
 325   0.0000       0.848891        23.0995 
 326   0.0000       0.856214        23.2988 
 327   0.0000       0.862202        23.4617 
 328   0.0000       0.867816        23.6145 
 329   0.0000       0.868058        23.6211 
 330   0.0000       0.871123        23.7045 
 331   0.0000       0.875994        23.8370 
 332   0.0000       0.877886        23.8885 
 333   0.0000       0.880208        23.9517 
 334   0.0000       0.886244        24.1159 
 335   0.0000       0.892517        24.2866 
 336   0.0000       0.897406        24.4197 
 337   0.0000       0.902092        24.5472 
 338   0.0000       0.910196        24.7677 
 339   0.0000       0.917674        24.9712 
 340   0.0000       0.927758        25.2456 
 341   0.0000       0.938097        25.5269 
 342   0.0000       0.939971        25.5779 
 343   0.0000       0.941227        25.6121 
 344   0.0000       0.943345        25.6697 
 345   0.0000       0.946923        25.7671 
 346   0.0000       0.953790        25.9539 
 347   0.0000       0.954553        25.9747 
 348   0.0000       0.967819        26.3357 
 349   0.0000       0.971703        26.4414 
 350   0.0000       0.978328        26.6217 
 351   0.0000       0.981141        26.6982 
 352   0.0000       0.989559        26.9273 
 353   0.0000       1.007948        27.4277 
 354   0.0000       1.010660        27.5015 
 355   0.0000       1.012579        27.5537 
 356   0.0000       1.014255        27.5993 
 357   0.0000       1.016195        27.6521 
 358   0.0000       1.018372        27.7113 
 359   0.0000       1.020724        27.7753 
 360   0.0000       1.035026        28.1645 
 361   0.0000       1.035773        28.1848 
 362   0.0000       1.042605        28.3707 
 363   0.0000       1.050362        28.5818 
 364   0.0000       1.060581        28.8599 
 365   0.0000       1.063775        28.9468 
 366   0.0000       1.067016        29.0350 
 367   0.0000       1.070481        29.1293 
 368   0.0000       1.073857        29.2211 
 369   0.0000       1.081319        29.4242 
 370   0.0000       1.086032        29.5524 
 371   0.0000       1.097021        29.8515 
 372   0.0000       1.097792        29.8724 
 373   0.0000       1.102938        30.0125 
 374   0.0000       1.106072        30.0978 
 375   0.0000       1.109468        30.1902 
 376   0.0000       1.112274        30.2665 
 377   0.0000       1.119043        30.4507 
 378   0.0000       1.135038        30.8860 
 379   0.0000       1.142583        31.0913 
 380   0.0000       1.145741        31.1772 
 381   0.0000       1.156932        31.4817 
 382   0.0000       1.161090        31.5949 
 383   0.0000       1.163570        31.6624 
 384   0.0000       1.167230        31.7619 
 385   0.0000       1.199399        32.6373 
 386   0.0000       1.204966        32.7888 
 387   0.0000       1.234914        33.6037 
 388   0.0000       1.237961        33.6866 
 389   0.0000       1.239979        33.7415 
 390   0.0000       1.242741        33.8167 
 391   0.0000       1.249784        34.0084 
 392   0.0000       1.274205        34.6729 
 393   0.0000       1.283909        34.9369 
 394   0.0000       1.298702        35.3395 
 395   0.0000       1.305995        35.5379 
 396   0.0000       1.306983        35.5648 
 397   0.0000       1.316978        35.8368 
 398   0.0000       1.322385        35.9839 
 399   0.0000       1.327908        36.1342 
 400   0.0000       1.336384        36.3649 
 401   0.0000       1.354262        36.8514 
 402   0.0000       1.360114        37.0106 
 403   0.0000       1.396115        37.9902 
 404   0.0000       1.400827        38.1184 
 405   0.0000       1.415149        38.5082 
 406   0.0000       1.426770        38.8244 
 407   0.0000       1.426962        38.8296 
 408   0.0000       1.429687        38.9038 
 409   0.0000       1.430565        38.9277 
 410   0.0000       1.442183        39.2438 
 411   0.0000       1.443923        39.2911 
 412   0.0000       1.449700        39.4483 
 413   0.0000       1.486543        40.4509 
 414   0.0000       1.486793        40.4577 
 415   0.0000       1.497269        40.7428 
 416   0.0000       1.497683        40.7540 
 417   0.0000       1.499688        40.8086 
 418   0.0000       1.509792        41.0835 
 419   0.0000       1.511581        41.1322 
 420   0.0000       1.526346        41.5340 
[...]
Total number of batches                      ...      304
Average number of points per batch           ...       58
Average number of grid points per atom       ...      445

Memory available               ... 821.8 MB
Memory needed per perturbation ...  41.3 MB
Perturbations treated per batch... 3
Number of batches              ... 1
     CP-SCF ITERATION   0:   4.1466e-02 (   4.7 sec   0/  3 done)
     CP-SCF ITERATION   1:   1.4644e-03 (   4.8 sec   0/  3 done)
     CP-SCF ITERATION   2:   1.4448e-04 (   4.9 sec   3/  3 done)
                    *** THE CP-SCF HAS CONVERGED ***

Forming final perturbed densities           ... done
Transforming perturbed density to AO basis  ... done

 Raw HFC matrix (all values in MHz): 
 -----------------------------------
                -0.0754              -0.0056               0.0071
                -0.0054               0.0408              -0.1283
                 0.0068              -0.1282               0.0659

 A(FC)           0.0102               0.0102               0.0102
 A(SD)          -0.0857              -0.0877               0.1734
 A(ORB+DIA)      0.0005               0.0012              -0.0011    A(PC) =   0.0002
 A(ORB)          0.0005               0.0012              -0.0012    A(PC) =   0.0002
 A(DIA)         -0.0000              -0.0000               0.0000    A(PC) =  -0.0000
             ----------           ----------           ----------
 A(Tot)         -0.0750              -0.0762               0.1825    A(iso)=    0.0104
 Orientation: 
  X          -0.6508238           -0.7584202           -0.0350320
  Y          -0.5774780            0.4645413            0.6713572
  Z          -0.4928971            0.4571654           -0.7403055

Notes:  (1) The A matrix conforms to the "SAI" spin Hamiltonian convention.
        (2) Tensor is right-handed.

 Raw EFG matrix (all values in a.u.**-3):
 -----------------------------------
            -0.0655      -0.0212       0.1678
            -0.0212      -0.1351      -0.0373
             0.1678      -0.0373       0.2006

 V(El)       0.5571       0.8078      -1.3649
 V(Nuc)     -0.6955      -0.9554       1.6509
         ----------   ----------   ----------
 V(Tot)     -0.1384      -0.1476       0.2861 
 Orientation: 
  X      -0.2557205   -0.8640859    0.4335466
  Y       0.9390426   -0.3286111   -0.1010635
  Z       0.2297958    0.3812747    0.8954460

Note: Tensor is right-handed


 Quadrupole tensor eigenvalues (in MHz;Q= 0.0029 I=  1.0)
  e**2qQ            =     0.192082 MHz 
  e**2qQ/(4I*(2I-1))=     0.048021 MHz 
  eta               =     0.032037
  NOTE: the diagonal representation of the SH term I*Q*I = e**2qQ/(4I(2I-1))*[-(1-eta),-(1+eta),2]

 RHO(0)=      0.442117455 a.u.**-3

 -----------------------------------------------------------
 Nucleus  39H : A:ISTP=    1 I=  0.5 P=533.5514 MHz/au**3
                Q:ISTP=    2 I=  1.0 Q=  0.0029 barn     
 -----------------------------------------------------------
 Solving for nuclear perturbation:
Forming RHS of the CP-SCF equations         ... 
Calc. nucleus orbit integrals (SHARK)       ... done

------------------------------------------------------------------------------
                           ORCA CP-SCF CALCULATION
------------------------------------------------------------------------------

Input orbitals are from        ... input_19.gbw
Input Perturbation             ... input_19.pin.tmp
Wavefunction output            ... input_19.pout.tmp
Perturbation mode              ... Imaginary perturbation
Solver                         ... POPLE
Max. number of iterations      ... 64
Convergence tolerance          ... 1.000e-03
Integral handling              ... Direct
DFT GridXC                     ... 1
COSX GridX                     ... 1
COSX IntAccX                   ... 3.067
COSX Algorithm                 ... Auto
Number of perturbations        ... 3
Number of operators            ... 2
Orbital ranges used for CP-SCF:
 Operator 0:  Orbitals   0...160  to 161...680
 Operator 1:  Orbitals   0...159  to 160...680
Variables per perturbation     ... 167080
DFT calculation                         ... on
XC functional terms                     ... off
Hybrid DFT                              ... on
   Exchange mixing (SCF)                ...  0.200
   Exchange mixing (CP-SCF)             ...  0.200
   GGA exch. scaling(SCF)               ...  0.720
   GGA exch. scaling (CP-SCF)           ...  0.720
   GGA corr. scaling (SCF)              ...  0.810
   GGA corr. scaling (CP-SCF)           ...  0.810

CP-SCF GRID
-----------

General Integration Accuracy     IntAcc      ... 3.467
Radial Grid Type                 RadialGrid  ... OptM3 with GC (2021)
Angular Grid (max. ang.)         AngularGrid ... 1 (Lebedev-50)
Angular grid pruning method      GridPruning ... 4 (adaptive)
Weight generation scheme         WeightScheme... Becke
Basis function cutoff            BFCut       ... 1.0000e-10
Integration weight cutoff        WCut        ... 1.0000e-14
Angular grids for H and He will be reduced by one unit
Partially contracted basis set               ... off
Rotationally invariant grid construction     ... off

Total number of grid points                  ...    39344
Total number of batches                      ...      633
Average number of points per batch           ...       62
Average number of grid points per atom       ...      984

CP-SCF GRIDX
------------

General Integration Accuracy     IntAcc      ... 3.067
Radial Grid Type                 RadialGrid  ... OptM3 with GC (2021)
Angular Grid (max. ang.)         AngularGrid ... 1 (Lebedev-50)
Angular grid pruning method      GridPruning ... 4 (adaptive)
Weight generation scheme         WeightScheme... Becke
Basis function cutoff            BFCut       ... 1.0000e-10
Integration weight cutoff        WCut        ... 1.0000e-14
Angular grids for H and He will be reduced by one unit
Partially contracted basis set               ... on
Rotationally invariant grid construction     ... off

Total number of grid points                  ...    17781
Total number of batches                      ...      304
Average number of points per batch           ...       58
Average number of grid points per atom       ...      445

Memory available               ... 819.7 MB
Memory needed per perturbation ...  41.3 MB
Perturbations treated per batch... 3
Number of batches              ... 1
     CP-SCF ITERATION   0:   4.3129e-02 (   4.8 sec   0/  3 done)
     CP-SCF ITERATION   1:   1.5870e-03 (   4.9 sec   0/  3 done)
     CP-SCF ITERATION   2:   1.7814e-04 (   4.9 sec   3/  3 done)
                    *** THE CP-SCF HAS CONVERGED ***

Forming final perturbed densities           ... done
Transforming perturbed density to AO basis  ... done

 Raw HFC matrix (all values in MHz): 
 -----------------------------------
                -0.1399              -0.0228               0.0181
                -0.0226               0.0882              -0.2037
                 0.0179              -0.2036               0.0333

 A(FC)          -0.0065              -0.0065              -0.0065
 A(SD)          -0.1369              -0.1397               0.2765
 A(ORB+DIA)      0.0020               0.0008              -0.0018    A(PC) =   0.0003
 A(ORB)          0.0020               0.0009              -0.0019    A(PC) =   0.0003
 A(DIA)         -0.0000              -0.0001               0.0000    A(PC) =  -0.0000
             ----------           ----------           ----------
 A(Tot)         -0.1414              -0.1453               0.2683    A(iso)=   -0.0061
 Orientation: 
  X           0.9223730            0.3797082            0.0710613
  Y          -0.2010152            0.6288617           -0.7510831
  Z          -0.3298801            0.6784944            0.6563722

Notes:  (1) The A matrix conforms to the "SAI" spin Hamiltonian convention.
        (2) Tensor is right-handed.

 Raw EFG matrix (all values in a.u.**-3):
 -----------------------------------
             0.0723       0.0556      -0.2043
             0.0556      -0.1253      -0.0517
            -0.2043      -0.0517       0.0530

 V(El)       0.6294       0.4405      -1.0699
 V(Nuc)     -0.7685      -0.5827       1.3512
         ----------   ----------   ----------
 V(Tot)     -0.1391      -0.1422       0.2813 
 Orientation: 
  X      -0.1101636    0.6939161   -0.7115789
  Y      -0.9241727   -0.3349687   -0.1835777
  Z      -0.3657442    0.6373982    0.6781996

Note: Tensor is right-handed


 Quadrupole tensor eigenvalues (in MHz;Q= 0.0029 I=  1.0)
  e**2qQ            =     0.188901 MHz 
  e**2qQ/(4I*(2I-1))=     0.047225 MHz 
  eta               =     0.010955
  NOTE: the diagonal representation of the SH term I*Q*I = e**2qQ/(4I(2I-1))*[-(1-eta),-(1+eta),2]

 RHO(0)=      0.439720013 a.u.**-3

 -----------------------------------------------------------
 Nucleus   0V : A:ISTP=   51 I=  3.5 P=140.5173 MHz/au**3
                Q:ISTP=   51 I=  3.5 Q= -0.0430 barn     
 -----------------------------------------------------------
 Solving for nuclear perturbation:
Forming RHS of the CP-SCF equations         ... 
Calc. nucleus orbit integrals (SHARK)       ... done

------------------------------------------------------------------------------
                           ORCA CP-SCF CALCULATION
------------------------------------------------------------------------------

Input orbitals are from        ... input_19.gbw
Input Perturbation             ... input_19.pin.tmp
Wavefunction output            ... input_19.pout.tmp
Perturbation mode              ... Imaginary perturbation
Solver                         ... POPLE
Max. number of iterations      ... 64
Convergence tolerance          ... 1.000e-03
Integral handling              ... Direct
DFT GridXC                     ... 1
COSX GridX                     ... 1
COSX IntAccX                   ... 3.067
COSX Algorithm                 ... Auto
Number of perturbations        ... 3
Number of operators            ... 2
Orbital ranges used for CP-SCF:
 Operator 0:  Orbitals   0...160  to 161...680
 Operator 1:  Orbitals   0...159  to 160...680
Variables per perturbation     ... 167080
DFT calculation                         ... on
XC functional terms                     ... off
Hybrid DFT                              ... on
   Exchange mixing (SCF)                ...  0.200
   Exchange mixing (CP-SCF)             ...  0.200
   GGA exch. scaling(SCF)               ...  0.720
   GGA exch. scaling (CP-SCF)           ...  0.720
   GGA corr. scaling (SCF)              ...  0.810
   GGA corr. scaling (CP-SCF)           ...  0.810

CP-SCF GRID
-----------

General Integration Accuracy     IntAcc      ... 3.467
Radial Grid Type                 RadialGrid  ... OptM3 with GC (2021)
Angular Grid (max. ang.)         AngularGrid ... 1 (Lebedev-50)
Angular grid pruning method      GridPruning ... 4 (adaptive)
Weight generation scheme         WeightScheme... Becke
Basis function cutoff            BFCut       ... 1.0000e-10
Integration weight cutoff        WCut        ... 1.0000e-14
Angular grids for H and He will be reduced by one unit
Partially contracted basis set               ... off
Rotationally invariant grid construction     ... off

Total number of grid points                  ...    39344
Total number of batches                      ...      633
Average number of points per batch           ...       62
Average number of grid points per atom       ...      984

CP-SCF GRIDX
------------

General Integration Accuracy     IntAcc      ... 3.067
Radial Grid Type                 RadialGrid  ... OptM3 with GC (2021)
Angular Grid (max. ang.)         AngularGrid ... 1 (Lebedev-50)
Angular grid pruning method      GridPruning ... 4 (adaptive)
Weight generation scheme         WeightScheme... Becke
Basis function cutoff            BFCut       ... 1.0000e-10
Integration weight cutoff        WCut        ... 1.0000e-14
Angular grids for H and He will be reduced by one unit
Partially contracted basis set               ... on
Rotationally invariant grid construction     ... off

Total number of grid points                  ...    17781
Total number of batches                      ...      304
Average number of points per batch           ...       58
Average number of grid points per atom       ...      445

Memory available               ... 817.6 MB
Memory needed per perturbation ...  41.3 MB
Perturbations treated per batch... 3
Number of batches              ... 1
     CP-SCF ITERATION   0:   1.1794e+01 (   5.2 sec   0/  3 done)
     CP-SCF ITERATION   1:   2.0446e+00 (   4.9 sec   0/  3 done)
     CP-SCF ITERATION   2:   3.4014e-01 (   4.9 sec   0/  3 done)
     CP-SCF ITERATION   3:   4.3398e-02 (   4.9 sec   0/  3 done)
     CP-SCF ITERATION   4:   9.7410e-03 (   4.9 sec   0/  3 done)
     CP-SCF ITERATION   5:   2.4451e-03 (   4.9 sec   0/  3 done)
     CP-SCF ITERATION   6:   3.6726e-04 (   4.9 sec   3/  3 done)
                    *** THE CP-SCF HAS CONVERGED ***

Forming final perturbed densities           ... done
Transforming perturbed density to AO basis  ... done

 Raw HFC matrix (all values in MHz): 
 -----------------------------------
              -275.8794             115.3665              90.7076
               114.5321            -156.6558             -51.8112
                91.1173             -52.4632            -128.3972

 A(FC)        -175.0773            -175.0773            -175.0773
 A(SD)          97.9759              93.7228            -191.6987
 A(ORB+DIA)     -6.9735              -7.4697             -21.2574    A(PC) = -11.9002
 A(ORB)         -6.9730              -7.4702             -21.2572    A(PC) = -11.9001
 A(DIA)         -0.0004               0.0005              -0.0002    A(PC) =  -0.0000
             ----------           ----------           ----------
 A(Tot)        -84.0749             -88.8242            -388.0334    A(iso)= -186.9775
 Orientation: 
  X          -0.6015252           -0.0848581           -0.7943340
  Y          -0.5349715           -0.6956634            0.4794350
  Z          -0.5932731            0.7133383            0.3730624

Notes:  (1) The A matrix conforms to the "SAI" spin Hamiltonian convention.
        (2) Tensor is right-handed.

 Raw EFG matrix (all values in a.u.**-3):
 -----------------------------------
             0.2127      -0.0035      -0.1006
            -0.0035       0.0186       0.1468
            -0.1006       0.1468      -0.2314

 V(El)       0.1498       0.3352      -0.4850
 V(Nuc)     -0.0761      -0.0943       0.1704
         ----------   ----------   ----------
 V(Tot)      0.0736       0.2410      -0.3146 
 Orientation: 
  X      -0.2710312    0.9475207    0.1695480
  Y      -0.8992484   -0.1864118   -0.3957309
  Z      -0.3433575   -0.2597212    0.9025799

Note: Tensor is right-handed


 Quadrupole tensor eigenvalues (in MHz;Q=-0.0430 I=  3.5)
  e**2qQ            =     3.178766 MHz 
  e**2qQ/(4I*(2I-1))=     0.037842 MHz 
  eta               =     0.531929
  NOTE: the diagonal representation of the SH term I*Q*I = e**2qQ/(4I(2I-1))*[-(1-eta),-(1+eta),2]

 RHO(0)=   8115.205156418 a.u.**-3


--------------------------------------------------------------------------------
----------------------------------------------------------------------------
                           ORCA EULER ANGLE PROGRAM
----------------------------------------------------------------------------

Only g-tensor available        -->  using g-tensor as reference tensor

Reference tensor               ...  g

g-tensor ordering              ...  |g_min> --> |gx>
                                    |g_mid> --> |gy>
                                    |g_max> --> |gz>

A- and EFG-tensor ordering     ...  the axes |Ax>, |Qx>, |Ay>, etc. are assigned
                                    such that the Euler rotation is minimal. You
                                    can find the respective eigenvalues as Ax,
                                    EFGx, Ay, etc. in the tables below.
                                    The relation of |Ax>, |Ay>,  etc. to Amin, Amid, etc.
                                    (as printed in the ORCA EPR/NMR CALCULATION Output)
                                    is obtained in the detailed printout.

Euler rotation around          ...  z - y - z
   First rotation              -->  by alpha around z
   Second rotation             -->  by beta around y'
   Third rotation              -->  by gamma around z''
   Positive / Negative angle   -->  clockwise / counterclockwise rotation

Plot EFG-tensors                    (-)
Plot HFC-tensors                    (-)
Detailed Printout                   (-)

-------------------------------------------------------------------------
          Euler rotation of hyperfine tensor to g-tensor
-------------------------------------------------------------------------

-------------------------------------------------------------------
 Atom  |   Alpha    Beta    Gamma   |   Ax       Ay       Az 
       |          [degrees]         |           [MHz]         
-------------------------------------------------------------------
 25H     -151.1     11.5    125.5      -0.12     0.24    -0.12
 26H      -12.4     42.8     -9.9      -0.08     0.15    -0.08
 27H       19.7     12.3    -43.5      -0.07     0.13    -0.07
 28H      157.2     11.4   -172.2      -0.07     0.13    -0.07
 29H      148.1     33.1   -173.0      -0.09     0.17    -0.08
 30H       75.6     12.8   -101.4      -0.14     0.27    -0.14
 34H      -17.0     12.7     12.1      -0.13     0.25    -0.13
 35H     -134.1     10.6    136.5      -0.08     0.17    -0.08
 36H      147.5      9.9   -140.2      -0.07     0.14    -0.07
 37H      163.0     20.4   -166.5      -0.07     0.14    -0.07
 38H       78.8     19.2    -75.4      -0.08     0.18    -0.08
 39H      130.9     19.5   -135.6      -0.14     0.27    -0.15
  0V       93.3     13.0    -86.3    -388.03   -88.82   -84.07
-------------------------------------------------------------------


-------------------------------------------------------------------------------
    Euler rotation of Electric Field Gradient (EFG) tensor to g-tensor
-------------------------------------------------------------------------------

-------------------------------------------------------------------
 Atom  |   Alpha    Beta    Gamma  |   EFGx     EFGy     EFGz
       |          [degrees]        |         [a.u.**-3]       
-------------------------------------------------------------------
 25H       13.9     33.0     29.2     -0.14     0.27    -0.13
 26H      140.2     44.1   -102.9     -0.13    -0.14     0.28
 27H      128.3      4.5   -110.1      0.28    -0.15    -0.14
 28H      145.8      9.1   -110.9     -0.15     0.28    -0.14
 29H      -33.6     30.5     59.5     -0.14    -0.14     0.28
 30H        7.4     42.7     25.4     -0.14     0.27    -0.14
 34H      -82.9     29.9     54.6      0.28    -0.14    -0.14
 35H       56.6     44.5    -88.4     -0.15    -0.14     0.29
 36H       80.2      9.9   -113.6      0.28    -0.15    -0.14
 37H      163.5      7.2   -123.9      0.28    -0.15    -0.14
 38H     -133.3     29.5     91.4     -0.15    -0.14     0.29
 39H      -88.2     41.6     52.6      0.28    -0.14    -0.14
  0V      115.1     43.0   -114.2      0.24    -0.31     0.07
-------------------------------------------------------------------


Maximum memory used throughout the entire EPRNMR-calculation: 308.1 MB

Timings for individual modules:

Sum of individual times         ...     3725.488 sec (=  62.091 min)
GTO integral calculation        ...        1.545 sec (=   0.026 min)   0.0 %
Spin-Orbit-Coupling Matrices    ...       10.526 sec (=   0.175 min)   0.3 %
SCF iterations                  ...      190.149 sec (=   3.169 min)   5.1 %
EPR/NMR calculation             ...     3523.268 sec (=  58.721 min)  94.6 %
                             ****ORCA TERMINATED NORMALLY****
TOTAL RUN TIME: 0 days 1 hours 2 minutes 6 seconds 801 msec
