
                                 *****************
                                 * O   R   C   A *
                                 *****************

                                            #,                                       
                                            ###                                      
                                            ####                                     
                                            #####                                    
                                            ######                                   
                                           ########,                                 
                                     ,,################,,,,,                         
                               ,,#################################,,                 
                          ,,##########################################,,             
                       ,#########################################, ''#####,          
                    ,#############################################,,   '####,        
                  ,##################################################,,,,####,       
                ,###########''''           ''''###############################       
              ,#####''   ,,,,##########,,,,          '''####'''          '####       
            ,##' ,,,,###########################,,,                        '##       
           ' ,,###''''                  '''############,,,                           
         ,,##''                                '''############,,,,        ,,,,,,###''
      ,#''                                            '''#######################'''  
     '                                                          ''''####''''         
             ,#######,   #######,   ,#######,      ##                                
            ,#'     '#,  ##    ##  ,#'     '#,    #''#        ######   ,####,        
            ##       ##  ##   ,#'  ##            #'  '#       #        #'  '#        
            ##       ##  #######   ##           ,######,      #####,   #    #        
            '#,     ,#'  ##    ##  '#,     ,#' ,#      #,         ##   #,  ,#        
             '#######'   ##     ##  '#######'  #'      '#     #####' # '####'        



                  #######################################################
                  #                        -***-                        #
                  #          Department of theory and spectroscopy      #
                  #    Directorship and core code : Frank Neese         #
                  #        Max Planck Institute fuer Kohlenforschung    #
                  #                Kaiser Wilhelm Platz 1               #
                  #                 D-45470 Muelheim/Ruhr               #
                  #                      Germany                        #
                  #                                                     #
                  #                  All rights reserved                #
                  #                        -***-                        #
                  #######################################################


                         Program Version 5.0.4 -  RELEASE  -


 With contributions from (in alphabetic order):
   Daniel Aravena         : Magnetic Suceptibility
   Michael Atanasov       : Ab Initio Ligand Field Theory (pilot matlab implementation)
   Alexander A. Auer      : GIAO ZORA, VPT2 properties, NMR spectrum
   Ute Becker             : Parallelization
   Giovanni Bistoni       : ED, misc. LED, open-shell LED, HFLD
   Martin Brehm           : Molecular dynamics
   Dmytro Bykov           : SCF Hessian
   Vijay G. Chilkuri      : MRCI spin determinant printing, contributions to CSF-ICE
   Dipayan Datta          : RHF DLPNO-CCSD density
   Achintya Kumar Dutta   : EOM-CC, STEOM-CC
   Dmitry Ganyushin       : Spin-Orbit,Spin-Spin,Magnetic field MRCI
   Miquel Garcia          : C-PCM and meta-GGA Hessian, CC/C-PCM, Gaussian charge scheme
   Yang Guo               : DLPNO-NEVPT2, F12-NEVPT2, CIM, IAO-localization
   Andreas Hansen         : Spin unrestricted coupled pair/coupled cluster methods
   Benjamin Helmich-Paris : MC-RPA, TRAH-SCF, COSX integrals
   Lee Huntington         : MR-EOM, pCC
   Robert Izsak           : Overlap fitted RIJCOSX, COSX-SCS-MP3, EOM
   Marcus Kettner         : VPT2
   Christian Kollmar      : KDIIS, OOCD, Brueckner-CCSD(T), CCSD density, CASPT2, CASPT2-K
   Simone Kossmann        : Meta GGA functionals, TD-DFT gradient, OOMP2, MP2 Hessian
   Martin Krupicka        : Initial AUTO-CI
   Lucas Lang             : DCDCAS
   Marvin Lechner         : AUTO-CI (C++ implementation), FIC-MRCC
   Dagmar Lenk            : GEPOL surface, SMD
   Dimitrios Liakos       : Extrapolation schemes; Compound Job, initial MDCI parallelization
   Dimitrios Manganas     : Further ROCIS development; embedding schemes
   Dimitrios Pantazis     : SARC Basis sets
   Anastasios Papadopoulos: AUTO-CI, single reference methods and gradients
   Taras Petrenko         : DFT Hessian,TD-DFT gradient, ASA, ECA, R-Raman, ABS, FL, XAS/XES, NRVS
   Peter Pinski           : DLPNO-MP2, DLPNO-MP2 Gradient
   Christoph Reimann      : Effective Core Potentials
   Marius Retegan         : Local ZFS, SOC
   Christoph Riplinger    : Optimizer, TS searches, QM/MM, DLPNO-CCSD(T), (RO)-DLPNO pert. Triples
   Tobias Risthaus        : Range-separated hybrids, TD-DFT gradient, RPA, STAB
   Michael Roemelt        : Original ROCIS implementation
   Masaaki Saitow         : Open-shell DLPNO-CCSD energy and density
   Barbara Sandhoefer     : DKH picture change effects
   Avijit Sen             : IP-ROCIS
   Kantharuban Sivalingam : CASSCF convergence, NEVPT2, FIC-MRCI
   Bernardo de Souza      : ESD, SOC TD-DFT
   Georgi Stoychev        : AutoAux, RI-MP2 NMR, DLPNO-MP2 response
   Willem Van den Heuvel  : Paramagnetic NMR
   Boris Wezisla          : Elementary symmetry handling
   Frank Wennmohs         : Technical directorship


 We gratefully acknowledge several colleagues who have allowed us to
 interface, adapt or use parts of their codes:
   Stefan Grimme, W. Hujo, H. Kruse, P. Pracht,  : VdW corrections, initial TS optimization,
                  C. Bannwarth, S. Ehlert          DFT functionals, gCP, sTDA/sTD-DF
   Ed Valeev, F. Pavosevic, A. Kumar             : LibInt (2-el integral package), F12 methods
   Garnet Chan, S. Sharma, J. Yang, R. Olivares  : DMRG
   Ulf Ekstrom                                   : XCFun DFT Library
   Mihaly Kallay                                 : mrcc  (arbitrary order and MRCC methods)
   Jiri Pittner, Ondrej Demel                    : Mk-CCSD
   Frank Weinhold                                : gennbo (NPA and NBO analysis)
   Christopher J. Cramer and Donald G. Truhlar   : smd solvation model
   Lars Goerigk                                  : TD-DFT with DH, B97 family of functionals
   V. Asgeirsson, H. Jonsson                     : NEB implementation
   FAccTs GmbH                                   : IRC, NEB, NEB-TS, DLPNO-Multilevel, CI-OPT
                                                   MM, QMMM, 2- and 3-layer-ONIOM, Crystal-QMMM,
                                                   LR-CPCM, SF, NACMEs, symmetry and pop. for TD-DFT,
                                                   nearIR, NL-DFT gradient (VV10), updates on ESD,
                                                   ML-optimized integration grids
   S Lehtola, MJT Oliveira, MAL Marques          : LibXC Library
   Liviu Ungur et al                             : ANISO software


 Your calculation uses the libint2 library for the computation of 2-el integrals
 For citations please refer to: http://libint.valeyev.net

 Your ORCA version has been built with support for libXC version: 5.1.0
 For citations please refer to: https://tddft.org/programs/libxc/

 This ORCA versions uses:
   CBLAS   interface :  Fast vector & matrix operations
   LAPACKE interface :  Fast linear algebra routines
   SCALAPACK package :  Parallel linear algebra routines
   Shared memory     :  Shared parallel matrices
   BLAS/LAPACK       :  OpenBLAS 0.3.15  USE64BITINT DYNAMIC_ARCH NO_AFFINITY Prescott SINGLE_THREADED
        Core in use  :  Prescott
   Copyright (c) 2011-2014, The OpenBLAS Project


================================================================================

----- Orbital basis set information -----
Your calculation utilizes the basis: TZVP 

The basis set includes element-specific modifications.

Your calculation utilizes the basis: CP(PPP) 

----- AuxJ basis set information -----
Your calculation utilizes the auxiliary basis: def2/J
   F. Weigend, Phys. Chem. Chem. Phys. 8, 1057 (2006).

================================================================================
                                        WARNINGS
                       Please study these warnings very carefully!
================================================================================


WARNING: your system is open-shell and RHF/RKS was chosen
  ===> : WILL SWITCH to UHF/UKS


INFO   : the flag for use of the SHARK integral package has been found!

================================================================================
                                       INPUT FILE
================================================================================
NAME = input_57.inp
|  1> ! nofrozencore ReducedPop printbasis
|  2> ! B3LYP TZVP
|  3> 
|  4> %basis
|  5> newgto V "CP(PPP)" end
|  6> end
|  7> 
|  8> %pal
|  9> nprocs 8
| 10> end
| 11> 
| 12> % sym SymThresh 1e-2 end
| 13> * xyz -2 2 
| 14> V 0.1633409205905689 -1.1007897072888644 0.01996021877439522
| 15> S 2.4859116264129497 -0.2707546803574812 -0.03323049779105373
| 16> S 0.1448208624622983 -0.3028878227846252 2.3763531443896264
| 17> S 0.08944739653110254 -0.5250444536016878 -2.394697674254918
| 18> S -2.2091712354403596 -0.4656795713795047 -0.013049483733616711
| 19> O 0.22805561062347296 -2.6850795974227353 0.11593576492315341
| 20> C -1.7485862899274964 -0.37394612556378093 2.3797573129097493
| 21> C -2.8107923083196242 -0.4119195089094372 1.5323987493094118
| 22> C 2.949230125158946 -0.011247651482517515 -1.6265818555895293
| 23> C 1.9078159334600089 -0.14531841994345637 -2.480712036556894
| 24> S -2.311391559393123 -0.23002817653469926 4.37604171111432
| 25> S -4.220704650662389 -0.355272729645182 2.1364049698672147
| 26> S 2.3739231242104766 0.209739446180742 -4.403899754461217
| 27> S 4.366792545272597 0.3829401559612203 -2.2386726073602334
| 28> C -3.92642895684979 -0.2174039626909849 3.959221249550563
| 29> C 3.9872967714412 0.5891190281466174 -4.026211880366974
| 30> C -4.989949585890934 -0.12499275906940414 4.818975853716857
| 31> C 4.947157033240545 0.9983185534074347 -4.91323496088169
| 32> S -4.653066862915278 -0.04951818865641908 6.577674803489525
| 33> S -6.720457479764373 -0.10886225223348654 4.3644205733021115
| 34> S 6.628318018933158 1.3894728088429813 -4.491059729640322
| 35> S 4.49467123785602 1.1967446962287704 -6.627071358950736
| 36> C 4.800225313758898 3.020715793922383 -6.774131108588404
| 37> C 6.616125501823798 3.177811090938082 -4.95780149416722
| 38> C 6.230886688109394 3.43272485752521 -6.416796679314272
| 39> H 4.0776700641936605 3.5351838909231366 -6.136540527378061
| 40> H 4.578919885443734 3.273076304559767 -7.814111961861713
| 41> H 6.337759145732382 4.5086033190266255 -6.614081263861492
| 42> H 6.933334861825771 2.910160715391165 -7.073682891714287
| 43> H 7.632486453788732 3.5318934080586306 -4.7676404480918535
| 44> H 5.939559130891694 3.7012733349066282 -4.278718297946627
| 45> C -7.244152579071423 -1.6677396628567318 5.202676112658307
| 46> C -5.4920061079404165 -1.6253587046214524 7.083399411018866
| 47> C -6.973638742585408 -1.6810112940260271 6.707225371823563
| 48> H -4.946679396504023 -2.4572762872416014 6.631934715847234
| 49> H -5.371865252680111 -1.6867490923646307 8.167895841581487
| 50> H -7.498866876834635 -0.8429221373952632 7.176104226242285
| 51> H -7.398870216561091 -2.6060071431773117 7.121421131051446
| 52> H -8.318061100349604 -1.7437957855647048 5.013360414202683
| 53> H -6.750204309673786 -2.506655707697963 4.707405110472613
| 54> * 
| 55> 
| 56> % eprnmr
| 57> gtensor true
| 58> Nuclei = all H {aiso,adip,aorb,fgrad,rho}
| 59> Nuclei = all V {aiso,adip,aorb,fgrad,rho}
| 60> end
| 61> 
| 62>                          ****END OF INPUT****
================================================================================

------------------------------------------------------------------------------
                            SYMMETRY HANDLING SETUP
------------------------------------------------------------------------------

------------------
SYMMETRY DETECTION
------------------
The point group will now be determined using a tolerance of 1.0000e-02.
Splitting atom subsets according to nuclear charge, mass and basis set.
Splitting atom subsets according to distance from the molecule's center.
Identifying relative distance patterns of the atoms.
Splitting atom subsets according to atoms' relative distance patterns.
Bring atoms of each subset into input order.
The molecule is neither linear nor planar.
There is at least one atom subset not centered around the molecule's center.
The molecule does not have a center of inversion.
Analyzing the first atom subset for its symmetry.
The subset consists of a single off-center atom.
No testing is needed for point group C1.
This point group has been found:    C1
Largest non-degenerate subgroup:    C1


Mass-centered symmetry-perfected Cartesians (point group C1):

Atom          Symmetry-perfected Cartesians (x, y, z; au)
  0       0.305068283581   -2.074664332282    0.040715158338
  1       4.694090844253   -0.506125449820   -0.059800728838
  2       0.270070445734   -0.566848288829    4.493652451660
  3       0.165429760038   -0.986663479908   -4.522326966599
  4      -4.178329940717   -0.874480110536   -0.021664139165
  5       0.427361324584   -5.068538341375    0.222082656112
  6      -3.307950532291   -0.701129020623    4.500085397877
  7      -5.315229004855   -0.772888315525    2.898809775439
  8       5.569635919662   -0.015728235418   -3.070798430189
  9       3.601648305373   -0.269085270374   -4.684870554934
 10      -4.371498358308   -0.429163511202    8.272516195903
 11      -7.979577204718   -0.665841416347    4.040216115478
 12       4.482463244942    0.401876858295   -8.319168645894
 13       8.248440671416    0.729178765981   -4.227482320141
 14      -7.423476735542   -0.405307204382    7.484839676533
 15       7.531297589894    1.118800369012   -7.605441999753
 16      -9.433239462206   -0.230675337831    9.109540420785
 17       9.345170611529    1.892075405886   -9.281672696393
 18      -8.796623376532   -0.088049069675   12.432999787870
 19     -12.703425454215   -0.200193097510    8.250555428074
 20      12.522104461521    2.631249824777   -8.483877128822
 21       8.490096378762    2.267046473629  -12.520354127089
 22       9.067509901322    5.713852324457  -12.798256779227
 23      12.499063943301    6.010719412744   -9.365891239041
 24      11.771068089224    6.492436619360  -12.122992569678
 25       7.702078363017    6.686056132428  -11.593385195172
 26       8.649303249857    6.190744576578  -14.763535776436
 27      11.973027765391    8.525552264982  -12.495806404917
 28      13.098502760821    5.504933503319  -13.364327612263
 29      14.419707795726    6.679838020966   -9.006538940618
 30      11.220538790818    6.999919695292   -8.082609976036
 31     -13.693065769583   -3.146044479944    9.834628827699
 32     -10.381988792628   -3.065956075586   13.388680795286
 33     -13.181868703188   -3.171124228204   12.677814882516
 34      -9.351470654502   -4.638052472732   12.535536162277
 35     -10.154955478691   -3.181967095676   15.438082042264
 36     -14.174406034749   -1.587365246363   13.563867507354
 37     -13.985439732525   -4.919113058114   13.460531433288
 38     -15.722458767683   -3.289769722670    9.476874004766
 39     -12.759638816097   -4.731366054046    8.898702271496


------------------
SYMMETRY REDUCTION
------------------
ORCA supports only abelian point groups.
It is now checked, if the determined point group is supported:
Point Group ( C1    ) is          ... supported

The point group is C1 - hence turning off symmetry
If this is a round-off problem, please increase the symmetry
        detection tolerance (%method SymThresh)

Storing the symmetry object:
Symmetry file                     ... input_57.sym.tmp
Writing symmetry information      ... done

                       ****************************
                       * Single Point Calculation *
                       ****************************

---------------------------------
CARTESIAN COORDINATES (ANGSTROEM)
---------------------------------
  V      0.161435   -1.097865    0.021546
  S      2.484006   -0.267830   -0.031645
  S      0.142915   -0.299963    2.377938
  S      0.087542   -0.522120   -2.393112
  S     -2.211077   -0.462755   -0.011464
  O      0.226150   -2.682155    0.117521
  C     -1.750492   -0.371021    2.381343
  C     -2.812698   -0.408995    1.533984
  C      2.947324   -0.008323   -1.624997
  C      1.905910   -0.142394   -2.479127
  S     -2.313297   -0.227104    4.377627
  S     -4.222610   -0.352348    2.137990
  S      2.372017    0.212664   -4.402314
  S      4.364887    0.385865   -2.237087
  C     -3.928335   -0.214479    3.960807
  C      3.985391    0.592044   -4.024627
  C     -4.991855   -0.122068    4.820561
  C      4.945251    1.001243   -4.911650
  S     -4.654973   -0.046594    6.579260
  S     -6.722363   -0.105938    4.366006
  S      6.626412    1.392397   -4.489474
  S      4.492765    1.199669   -6.625486
  C      4.798320    3.023640   -6.772546
  C      6.614220    3.180736   -4.956216
  C      6.228981    3.435649   -6.415211
  H      4.075764    3.538109   -6.134955
  H      4.577014    3.276001   -7.812527
  H      6.335853    4.511528   -6.612496
  H      6.931429    2.913085   -7.072098
  H      7.630581    3.534818   -4.766055
  H      5.937653    3.704198   -4.277133
  C     -7.246058   -1.664815    5.204261
  C     -5.493912   -1.622434    7.084985
  C     -6.975544   -1.678087    6.708811
  H     -4.948585   -2.454352    6.633520
  H     -5.373771   -1.683824    8.169481
  H     -7.500773   -0.839998    7.177690
  H     -7.400776   -2.603083    7.123006
  H     -8.319967   -1.740871    5.014946
  H     -6.752110   -2.503731    4.708990

----------------------------
CARTESIAN COORDINATES (A.U.)
----------------------------
  NO LB      ZA    FRAG     MASS         X           Y           Z
   0 V    23.0000    0    50.940    0.305068   -2.074664    0.040715
   1 S    16.0000    0    32.060    4.694091   -0.506125   -0.059801
   2 S    16.0000    0    32.060    0.270070   -0.566848    4.493652
   3 S    16.0000    0    32.060    0.165430   -0.986663   -4.522327
   4 S    16.0000    0    32.060   -4.178330   -0.874480   -0.021664
   5 O     8.0000    0    15.999    0.427361   -5.068538    0.222083
   6 C     6.0000    0    12.011   -3.307951   -0.701129    4.500085
   7 C     6.0000    0    12.011   -5.315229   -0.772888    2.898810
   8 C     6.0000    0    12.011    5.569636   -0.015728   -3.070798
   9 C     6.0000    0    12.011    3.601648   -0.269085   -4.684871
  10 S    16.0000    0    32.060   -4.371498   -0.429164    8.272516
  11 S    16.0000    0    32.060   -7.979577   -0.665841    4.040216
  12 S    16.0000    0    32.060    4.482463    0.401877   -8.319169
  13 S    16.0000    0    32.060    8.248441    0.729179   -4.227482
  14 C     6.0000    0    12.011   -7.423477   -0.405307    7.484840
  15 C     6.0000    0    12.011    7.531298    1.118800   -7.605442
  16 C     6.0000    0    12.011   -9.433239   -0.230675    9.109540
  17 C     6.0000    0    12.011    9.345171    1.892075   -9.281673
  18 S    16.0000    0    32.060   -8.796623   -0.088049   12.433000
  19 S    16.0000    0    32.060  -12.703425   -0.200193    8.250555
  20 S    16.0000    0    32.060   12.522104    2.631250   -8.483877
  21 S    16.0000    0    32.060    8.490096    2.267046  -12.520354
  22 C     6.0000    0    12.011    9.067510    5.713852  -12.798257
  23 C     6.0000    0    12.011   12.499064    6.010719   -9.365891
  24 C     6.0000    0    12.011   11.771068    6.492437  -12.122993
  25 H     1.0000    0     1.008    7.702078    6.686056  -11.593385
  26 H     1.0000    0     1.008    8.649303    6.190745  -14.763536
  27 H     1.0000    0     1.008   11.973028    8.525552  -12.495806
  28 H     1.0000    0     1.008   13.098503    5.504934  -13.364328
  29 H     1.0000    0     1.008   14.419708    6.679838   -9.006539
  30 H     1.0000    0     1.008   11.220539    6.999920   -8.082610
  31 C     6.0000    0    12.011  -13.693066   -3.146044    9.834629
  32 C     6.0000    0    12.011  -10.381989   -3.065956   13.388681
  33 C     6.0000    0    12.011  -13.181869   -3.171124   12.677815
  34 H     1.0000    0     1.008   -9.351471   -4.638052   12.535536
  35 H     1.0000    0     1.008  -10.154955   -3.181967   15.438082
  36 H     1.0000    0     1.008  -14.174406   -1.587365   13.563868
  37 H     1.0000    0     1.008  -13.985440   -4.919113   13.460531
  38 H     1.0000    0     1.008  -15.722459   -3.289770    9.476874
  39 H     1.0000    0     1.008  -12.759639   -4.731366    8.898702

--------------------------------
INTERNAL COORDINATES (ANGSTROEM)
--------------------------------
 V      0   0   0     0.000000000000     0.00000000     0.00000000
 S      1   0   0     2.467006704856     0.00000000     0.00000000
 S      1   2   0     2.487886257396    85.38405396     0.00000000
 S      1   2   3     2.483448326503    85.93130576   148.97913545
 S      1   2   3     2.456271250434   145.29190854    75.34962892
 O      1   2   3     1.588513063385   107.36804144   255.45470501
 C      3   1   2     1.894743126516    89.83457543   163.00284758
 C      7   3   1     1.359316055470   141.33420493   341.16306981
 C      2   1   3     1.679516739635   109.39958832   200.98916350
 C      9   2   1     1.353534948077   111.78387486     8.00151966
 S      7   3   1     2.079089595449   105.64261652   166.01566824
 S      8   7   3     1.534889307137   118.12918700   184.69611866
 S     10   9   2     2.010465866376   114.06484542   178.12931245
 S      9   2   1     1.593587879867   130.39122011   186.53310125
 C     11   7   3     1.668006134023    91.29996768   176.30353427
 C     13  10   9     1.699868089891    92.68916647   358.34778315
 C     15  11   7     1.370691044085   126.51474802   180.52942833
 C     16  13  10     1.369520324428   126.01432913   182.44596826
 S     17  15  11     1.792263478328   118.19617908   358.34201678
 S     17  15  11     1.789284289028   126.27594555   179.87360852
 S     18  16  13     1.776945648362   125.09853167   179.97904550
 S     18  16  13     1.783634359538   118.54053055     1.37380293
 C     22  18  16     1.855225169214    98.26535676   116.79069046
 C     21  18  16     1.848283079897    98.43864714   243.29845513
 C     24  21  18     1.530378032471   113.80190861   302.57074197
 H     23  22  18     1.092375970421   107.92797002   294.12800329
 H     23  22  18     1.092804692114   105.61200436   178.55212894
 H     25  24  21     1.099025656398   108.04222631   184.81755884
 H     25  24  21     1.094534702713   109.33428781   301.27793983
 H     24  21  18     1.092943317570   105.27145476   181.74427651
 H     24  21  18     1.092203626860   108.10767895    66.26370717
 C     20  17  15     1.845813557121    98.70899750   116.73314582
 C     19  17  15     1.855491785824    98.43577034   243.04343649
 C     32  20  17     1.528732267331   113.83358060    57.75406656
 H     33  19  17     1.092377433612   107.96466113    65.57879856
 H     33  19  17     1.092856400774   105.57345986   181.13302728
 H     34  32  20     1.094580014247   109.27064411    58.64271694
 H     34  32  20     1.099089284075   108.04334275   175.07496806
 H     32  20  17     1.093116864547   105.00150779   178.24265596
 H     32  20  17     1.092272122110   108.32620775   293.66969598

---------------------------
INTERNAL COORDINATES (A.U.)
---------------------------
 V      0   0   0     0.000000000000     0.00000000     0.00000000
 S      1   0   0     4.661967042726     0.00000000     0.00000000
 S      1   2   0     4.701423678824    85.38405396     0.00000000
 S      1   2   3     4.693037204836    85.93130576   148.97913545
 S      1   2   3     4.641679973945   145.29190854    75.34962892
 O      1   2   3     3.001854649954   107.36804144   255.45470501
 C      3   1   2     3.580545603244    89.83457543   163.00284758
 C      7   3   1     2.568735074280   141.33420493   341.16306981
 C      2   1   3     3.173826675246   109.39958832   200.98916350
 C      9   2   1     2.557810364558   111.78387486     8.00151966
 S      7   3   1     3.928909943285   105.64261652   166.01566824
 S      8   7   3     2.900520436373   118.12918700   184.69611866
 S     10   9   2     3.799229889048   114.06484542   178.12931245
 S      9   2   1     3.011444663285   130.39122011   186.53310125
 C     11   7   3     3.152074783003    91.29996768   176.30353427
 C     13  10   9     3.212285153685    92.68916647   358.34778315
 C     15  11   7     2.590230687540   126.51474802   180.52942833
 C     16  13  10     2.588018348008   126.01432913   182.44596826
 S     17  15  11     3.386887133870   118.19617908   358.34201678
 S     17  15  11     3.381257281991   126.27594555   179.87360852
 S     18  16  13     3.357940630268   125.09853167   179.97904550
 S     18  16  13     3.370580462580   118.54053055     1.37380293
 C     22  18  16     3.505867486573    98.26535676   116.79069046
 C     21  18  16     3.492748838966    98.43864714   243.29845513
 C     24  21  18     2.891995362740   113.80190861   302.57074197
 H     23  22  18     2.064291419373   107.92797002   294.12800329
 H     23  22  18     2.065101585959   105.61200436   178.55212894
 H     25  24  21     2.076857504745   108.04222631   184.81755884
 H     25  24  21     2.068370832200   109.33428781   301.27793983
 H     24  21  18     2.065363550107   105.27145476   181.74427651
 H     24  21  18     2.063965737241   108.10767895    66.26370717
 C     20  17  15     3.488082117237    98.70899750   116.73314582
 C     19  17  15     3.506371318948    98.43577034   243.04343649
 C     32  20  17     2.888885317344   113.83358060    57.75406656
 H     33  19  17     2.064294184403   107.96466113    65.57879856
 H     33  19  17     2.065199301166   105.57345986   181.13302728
 H     34  32  20     2.068456458591   109.27064411    58.64271694
 H     34  32  20     2.076977743630   108.04334275   175.07496806
 H     32  20  17     2.065691506364   105.00150779   178.24265596
 H     32  20  17     2.064095174505   108.32620775   293.66969598

---------------------
BASIS SET INFORMATION
---------------------
There are 5 groups of distinct atoms

 Group   1 Type V   : 17s11p5d1f contracted to 17s7p3d1f pattern {11111111111111111/3311111/311/1}
 Group   2 Type S   : 14s9p1d contracted to 5s4p1d pattern {73211/6111/1}
 Group   3 Type O   : 11s6p1d contracted to 5s3p1d pattern {62111/411/1}
 Group   4 Type C   : 11s6p1d contracted to 5s3p1d pattern {62111/411/1}
 Group   5 Type H   : 5s1p contracted to 3s1p pattern {311/1}

Atom   0V    basis set group =>   1
Atom   1S    basis set group =>   2
Atom   2S    basis set group =>   2
Atom   3S    basis set group =>   2
Atom   4S    basis set group =>   2
Atom   5O    basis set group =>   3
Atom   6C    basis set group =>   4
Atom   7C    basis set group =>   4
Atom   8C    basis set group =>   4
Atom   9C    basis set group =>   4
Atom  10S    basis set group =>   2
Atom  11S    basis set group =>   2
Atom  12S    basis set group =>   2
Atom  13S    basis set group =>   2
Atom  14C    basis set group =>   4
Atom  15C    basis set group =>   4
Atom  16C    basis set group =>   4
Atom  17C    basis set group =>   4
Atom  18S    basis set group =>   2
Atom  19S    basis set group =>   2
Atom  20S    basis set group =>   2
Atom  21S    basis set group =>   2
Atom  22C    basis set group =>   4
Atom  23C    basis set group =>   4
Atom  24C    basis set group =>   4
Atom  25H    basis set group =>   5
Atom  26H    basis set group =>   5
Atom  27H    basis set group =>   5
Atom  28H    basis set group =>   5
Atom  29H    basis set group =>   5
Atom  30H    basis set group =>   5
Atom  31C    basis set group =>   4
Atom  32C    basis set group =>   4
Atom  33C    basis set group =>   4
Atom  34H    basis set group =>   5
Atom  35H    basis set group =>   5
Atom  36H    basis set group =>   5
Atom  37H    basis set group =>   5
Atom  38H    basis set group =>   5
Atom  39H    basis set group =>   5

-------------------------
BASIS SET IN INPUT FORMAT
-------------------------

 # Basis set for element : H 
 NewGTO H 
 S 3 
   1      34.0613410000      0.0254393168
   2       5.1235746000      0.1900859340
   3       1.1646626000      0.8524411390
 S 1 
   1       0.3272304100      1.0000000000
 S 1 
   1       0.1030724100      1.0000000000
 P 1 
   1       0.8000000000      1.0000000000
  end;

 # Basis set for element : C 
 NewGTO C 
 S 6 
   1   13575.3496820000      0.0006064601
   2    2035.2333680000      0.0046978985
   3     463.2256235900      0.0243324735
   4     131.2001959800      0.0973999560
   5      42.8530158900      0.3019558443
   6      15.5841857700      0.6623361013
 S 2 
   1       6.2067138500      0.6559530795
   2       2.5764896500      0.3758563390
 S 1 
   1       0.5769633900      1.0000000000
 S 1 
   1       0.2297283100      1.0000000000
 S 1 
   1       0.0951644400      1.0000000000
 P 4 
   1      34.6972322400      0.0113272290
   2       7.9582622800      0.0761696612
   3       2.3780826900      0.3019225154
   4       0.8143320800      0.7278502776
 P 1 
   1       0.2888754700      1.0000000000
 P 1 
   1       0.1005682400      1.0000000000
 D 1 
   1       0.8000000000      1.0000000000
  end;

 # Basis set for element : O 
 NewGTO O 
 S 6 
   1   27032.3826310000      0.0005722654
   2    4052.3871392000      0.0044353333
   3     922.3272271000      0.0230201034
   4     261.2407098900      0.0928224938
   5      85.3546413500      0.2937849971
   6      31.0350352400      0.6740160462
 S 2 
   1      12.2608607300      0.6383993750
   2       4.9987076000      0.3953458663
 S 1 
   1       1.1703108200      1.0000000000
 S 1 
   1       0.4647474100      1.0000000000
 S 1 
   1       0.1850453600      1.0000000000
 P 4 
   1      63.2749548000      0.0120183316
   2      14.6270493800      0.0830054304
   3       4.4501223500      0.3199174388
   4       1.5275799600      0.7071554258
 P 1 
   1       0.5293511800      1.0000000000
 P 1 
   1       0.1747842100      1.0000000000
 D 1 
   1       1.2000000000      1.0000000000
  end;

 # Basis set for element : S 
 NewGTO S 
 S 7 
   1   60700.9281040000      0.0005238013
   2    9102.6106854000      0.0040506304
   3    2071.4166009000      0.0208270003
   4     586.0247682100      0.0814968475
   5     190.5539502100      0.2374911358
   6      67.6303842600      0.4472617145
   7      25.1273069100      0.3489191913
 S 3 
   1     112.5746301000      0.1004556993
   2      34.7955542200      0.4339117282
   3       6.5115556200     -1.2084330582
 S 2 
   1       3.2399032300      0.6749812922
   2       1.5477160900      0.3470879597
 S 1 
   1       0.4054103000      1.0000000000
 S 1 
   1       0.1455065100      1.0000000000
 P 6 
   1     564.3671602700      0.0025564845
   2     133.4262437900      0.0202874255
   3      42.4682711900      0.0927670112
   4      15.6165275800      0.2650208365
   5       6.1093988500      0.4486298663
   6       2.4404160200      0.3596369916
 P 1 
   1       0.8388220100      1.0000000000
 P 1 
   1       0.3128874700      1.0000000000
 P 1 
   1       0.1077010900      1.0000000000
 D 1 
   1       0.5500000000      1.0000000000
  end;

 # Basis set for element : V 
 NewGTO V 
 S 1 
   1  4239814.9912500000      1.0000000000
 S 1 
   1  1695925.9965000001      1.0000000000
 S 1 
   1  678370.3986000001      1.0000000000
 S 1 
   1  271348.1594400000      1.0000000000
 S 1 
   1   40672.0050780000      1.0000000000
 S 1 
   1    9257.0761385000      1.0000000000
 S 1 
   1    2622.7328773000      1.0000000000
 S 1 
   1     858.5948018500      1.0000000000
 S 1 
   1     314.1941865000      1.0000000000
 S 1 
   1     124.4786212700      1.0000000000
 S 1 
   1      50.4693993090      1.0000000000
 S 1 
   1      12.5138469110      1.0000000000
 S 1 
   1       5.3447758082      1.0000000000
 S 1 
   1       1.5755631295      1.0000000000
 S 1 
   1       0.6306903307      1.0000000000
 S 1 
   1       0.0879544416      1.0000000000
 S 1 
   1       0.0342969197      1.0000000000
 P 3 
   1    1450.0319327000     -0.0222847647
   2     343.7504988400     -0.1817959329
   3     110.8252170800     -0.8607412073
 P 3 
   1      41.8224645460     -0.2522537814
   2      17.0880737100     -0.4620379520
   3       7.2613218939     -0.3990010670
 P 1 
   1       2.9458145262      1.0000000000
 P 1 
   1       1.1650209680      1.0000000000
 P 1 
   1       0.4339937839      1.0000000000
 D 3 
   1      27.3603358640      0.0575501019
   2       7.4542765527      0.3023798347
   3       2.4632270217      0.7724212088
 D 1 
   1       0.8249954244      1.0000000000
 D 1 
   1       0.2526297057      1.0000000000
 P 1 
   1       0.1112480000      1.0000000000
 P 1 
   1       0.0363780000      1.0000000000
 F 1 
   1       1.8000000000      1.0000000000
  end;

---------------------------------
AUXILIARY/J BASIS SET INFORMATION
---------------------------------
There are 5 groups of distinct atoms

 Group   1 Type V   : 19s5p5d3f3g contracted to 8s5p5d2f3g pattern {121111111/11111/11111/21/111}
 Group   2 Type S   : 14s5p5d2f1g contracted to 8s4p3d1f1g pattern {71111111/2111/311/2/1}
 Group   3 Type O   : 12s5p4d2f1g contracted to 6s4p3d1f1g pattern {711111/2111/211/2/1}
 Group   4 Type C   : 12s5p4d2f1g contracted to 6s4p3d1f1g pattern {711111/2111/211/2/1}
 Group   5 Type H   : 5s2p1d contracted to 3s1p1d pattern {311/2/1}

Atom   0V    basis set group =>   1
Atom   1S    basis set group =>   2
Atom   2S    basis set group =>   2
Atom   3S    basis set group =>   2
Atom   4S    basis set group =>   2
Atom   5O    basis set group =>   3
Atom   6C    basis set group =>   4
Atom   7C    basis set group =>   4
Atom   8C    basis set group =>   4
Atom   9C    basis set group =>   4
Atom  10S    basis set group =>   2
Atom  11S    basis set group =>   2
Atom  12S    basis set group =>   2
Atom  13S    basis set group =>   2
Atom  14C    basis set group =>   4
Atom  15C    basis set group =>   4
Atom  16C    basis set group =>   4
Atom  17C    basis set group =>   4
Atom  18S    basis set group =>   2
Atom  19S    basis set group =>   2
Atom  20S    basis set group =>   2
Atom  21S    basis set group =>   2
Atom  22C    basis set group =>   4
Atom  23C    basis set group =>   4
Atom  24C    basis set group =>   4
Atom  25H    basis set group =>   5
Atom  26H    basis set group =>   5
Atom  27H    basis set group =>   5
Atom  28H    basis set group =>   5
Atom  29H    basis set group =>   5
Atom  30H    basis set group =>   5
Atom  31C    basis set group =>   4
Atom  32C    basis set group =>   4
Atom  33C    basis set group =>   4
Atom  34H    basis set group =>   5
Atom  35H    basis set group =>   5
Atom  36H    basis set group =>   5
Atom  37H    basis set group =>   5
Atom  38H    basis set group =>   5
Atom  39H    basis set group =>   5

-------------------------------------
AUXILIARY/J BASIS SET IN INPUT FORMAT
-------------------------------------

 # Auxiliary/J basis set for element : H 
 NewAuxJGTO H 
 S 3 
   1      15.6752927000      0.1007184237
   2       3.6063578000      0.3404257499
   3       1.2080016000      0.6491996172
 S 1 
   1       0.4726794000      1.0000000000
 S 1 
   1       0.2018100000      1.0000000000
 P 2 
   1       2.0281365000      0.5596620919
   2       0.5358730000      0.5596620919
 D 1 
   1       2.2165124000      1.0000000000
  end;

 # Auxiliary/J basis set for element : C 
 NewAuxJGTO C 
 S 7 
   1    1861.0916331000      0.0134602335
   2     642.9939764000      0.0299160374
   3     235.1105725000      0.1008649584
   4      90.7028894000      0.2370970548
   5      36.7794552000      0.3924037254
   6      15.6046273000      0.3195862154
   7       6.8907294000      0.0530104441
 S 1 
   1       3.1478850000     -1.0000000000
 S 1 
   1       1.4777287000      1.0000000000
 S 1 
   1       0.7076466000      1.0000000000
 S 1 
   1       0.3430122000      1.0000000000
 S 1 
   1       0.1669453000      1.0000000000
 P 2 
   1      13.5472892000     -0.6769313712
   2       5.4669419000     -0.3779500978
 P 1 
   1       2.1751721000      1.0000000000
 P 1 
   1       0.8582194000      1.0000000000
 P 1 
   1       0.3376720000      1.0000000000
 D 2 
   1       5.9287253000     -0.3533329857
   2       1.9809209000     -0.7456525731
 D 1 
   1       0.8055417000     -1.0000000000
 D 1 
   1       0.3531244000     -1.0000000000
 F 2 
   1       1.6755626000      0.6311076882
   2       0.5997536000      0.4968166032
 G 1 
   1       1.0024600000     -1.0000000000
  end;

 # Auxiliary/J basis set for element : O 
 NewAuxJGTO O 
 S 7 
   1    2876.8216605000      0.0168151159
   2    1004.7443032000      0.0340137548
   3     369.7579954000      0.1194951309
   4     142.9442404000      0.2664627624
   5      57.8366425000      0.4202764046
   6      24.3864983000      0.2765077335
   7      10.6622662000      0.0057008815
 S 1 
   1       4.8070437000     -1.0000000000
 S 1 
   1       2.2210770000      1.0000000000
 S 1 
   1       1.0447795000      1.0000000000
 S 1 
   1       0.4968425000      1.0000000000
 S 1 
   1       0.2371384000      1.0000000000
 P 2 
   1      64.2613382000     -0.2731534179
   2      16.3006076000     -0.8168011598
 P 1 
   1       4.3550542000      1.0000000000
 P 1 
   1       1.2019554000      1.0000000000
 P 1 
   1       0.3354196000      1.0000000000
 D 2 
   1       9.2146611000     -0.4661230638
   2       2.8435251000     -0.6600908911
 D 1 
   1       0.9955759000     -1.0000000000
 D 1 
   1       0.3649441000     -1.0000000000
 F 2 
   1       2.6420115000      0.5931563945
   2       0.7345613000      0.5931563945
 G 1 
   1       1.3931000000     -1.0000000000
  end;

 # Auxiliary/J basis set for element : S 
 NewAuxJGTO S 
 S 7 
   1    7399.0303145000      0.0295137551
   2    2710.1675859000      0.0559686311
   3    1034.3279062000      0.1764696370
   4     410.4645411000      0.3577969368
   5     168.9762502000      0.4299293578
   6      71.9687889000      0.1259148089
   7      31.6172683000     -0.0646025788
 S 1 
   1      14.2796836000      1.0000000000
 S 1 
   1       6.6060948000      1.0000000000
 S 1 
   1       3.1181477000      1.0000000000
 S 1 
   1       1.4954039000     -1.0000000000
 S 1 
   1       0.7254779000      1.0000000000
 S 1 
   1       0.3544216000      1.0000000000
 S 1 
   1       0.1735525000      1.0000000000
 P 2 
   1      12.6998799000      1.4059102813
   2       4.4295784000     -1.2124994202
 P 1 
   1       1.5232889000      1.0000000000
 P 1 
   1       0.5194667000     -1.0000000000
 P 1 
   1       0.1766547000     -1.0000000000
 D 3 
   1      16.8546461000      1.0295742104
   2       5.0810461000     -0.7461553923
   3       1.5102323000      0.8357028005
 D 1 
   1       0.4451331000      1.0000000000
 D 1 
   1       0.1308362000      1.0000000000
 F 2 
   1       1.0809860000      0.5572698934
   2       0.4161474000      0.5572698934
 G 1 
   1       0.6707100000     -1.0000000000
  end;

 # Auxiliary/J basis set for element : V 
 NewAuxJGTO V 
 S 12 
   1   11942.0842430000      0.0459866720
   2    2430.7110193000      0.1744615821
   3     841.0764301000      0.2900402792
   4     494.7508273000      0.1411212903
   5     291.0298903000      0.2660697186
   6     171.1940483000      0.0446365706
   7      59.2366916000     -0.0408204801
   8      34.8451117000      0.1394665381
   9      20.4971240000      0.2164746715
  10      12.0571314000      0.0864266611
  11       7.0924300000     -0.0568501658
  12       4.1720176000     -0.0126212852
 S 1 
   1       2.4541279000      1.0000000000
 S 1 
   1       1.4436046000      1.0000000000
 S 1 
   1       0.8491792000      1.0000000000
 S 1 
   1       0.2938336000      1.0000000000
 S 1 
   1       0.1728433000      1.0000000000
 S 1 
   1       0.1016725000      1.0000000000
 S 1 
   1       0.0598074000      1.0000000000
 P 1 
   1      16.7130979000     -1.0000000000
 P 1 
   1       4.7454037000     -1.0000000000
 P 1 
   1       1.3889998000      1.0000000000
 P 1 
   1       0.4142440000     -1.0000000000
 P 1 
   1       0.1243234000      1.0000000000
 D 1 
   1       7.7143225000      1.0000000000
 D 1 
   1       3.1170731000      1.0000000000
 D 1 
   1       1.2767950000     -1.0000000000
 D 1 
   1       0.5273386000      1.0000000000
 D 1 
   1       0.2184050000      1.0000000000
 F 2 
   1       3.1309344000     -1.0825667766
   2       1.0419780000      0.1809223232
 F 1 
   1       0.3559044000      1.0000000000
 G 1 
   1       8.7130110000      1.0000000000
 G 1 
   1       2.7493872000      1.0000000000
 G 1 
   1       0.8775089000      1.0000000000
  end;



           ************************************************************
           *        Program running with 8 parallel MPI-processes     *
           *              working on a common directory               *
           ************************************************************
------------------------------------------------------------------------------
                           ORCA GTO INTEGRAL CALCULATION
                           -- RI-GTO INTEGRALS CHOSEN --
------------------------------------------------------------------------------
------------------------------------------------------------------------------
                   ___                                                        
                  /   \      - P O W E R E D   B Y -                         
                 /     \                                                     
                 |  |  |   _    _      __       _____    __    __             
                 |  |  |  | |  | |    /  \     |  _  \  |  |  /  |          
                  \  \/   | |  | |   /    \    | | | |  |  | /  /          
                 / \  \   | |__| |  /  /\  \   | |_| |  |  |/  /          
                |  |  |   |  __  | /  /__\  \  |    /   |      \           
                |  |  |   | |  | | |   __   |  |    \   |  |\   \          
                \     /   | |  | | |  |  |  |  | |\  \  |  | \   \       
                 \___/    |_|  |_| |__|  |__|  |_| \__\ |__|  \__/        
                                                                              
                      - O R C A' S   B I G   F R I E N D -                    
                                      &                                       
                       - I N T E G R A L  F E E D E R -                       
                                                                              
 v1 FN, 2020, v2 2021                                                         
------------------------------------------------------------------------------


Reading SHARK input file input_57.SHARKINP.tmp ... ok
----------------------
SHARK INTEGRAL PACKAGE
----------------------

Number of atoms                             ...     40
Number of basis functions                   ...    681
Number of shells                            ...    331
Maximum angular momentum                    ...      3
Integral batch strategy                     ... SHARK/LIBINT Hybrid
RI-J (if used) integral strategy            ... SPLIT-RIJ (Revised 2003 algorithm where possible)
Printlevel                                  ...      1
Contraction scheme used                     ... SEGMENTED contraction
Coulomb Range Separation                    ... NOT USED
Exchange Range Separation                   ... NOT USED
Finite Nucleus Model                        ... NOT USED
Auxiliary Coulomb fitting basis             ... AVAILABLE
   # of basis functions in Aux-J            ...   1568
   # of shells in Aux-J                     ...    512
   Maximum angular momentum in Aux-J        ...      4
Auxiliary J/K fitting basis                 ... NOT available
Auxiliary Correlation fitting basis         ... NOT available
Auxiliary 'external' fitting basis          ... NOT available
Integral threshold                          ...     1.000000e-10
Primitive cut-off                           ...     1.000000e-11
Primitive pair pre-selection threshold      ...     1.000000e-11

Calculating pre-screening integrals         ... done (  0.1 sec) Dimension = 331
Organizing shell pair data                  ... done (  0.1 sec)
Shell pair information
Total number of shell pairs                 ...     54946
Shell pairs after pre-screening             ...     22663
Total number of primitive shell pairs       ...    221635
Primitive shell pairs kept                  ...     55348
          la=0 lb=0:   6413 shell pairs
          la=1 lb=0:   9077 shell pairs
          la=1 lb=1:   3194 shell pairs
          la=2 lb=0:   2129 shell pairs
          la=2 lb=1:   1528 shell pairs
          la=2 lb=2:    198 shell pairs
          la=3 lb=0:     57 shell pairs
          la=3 lb=1:     54 shell pairs
          la=3 lb=2:     12 shell pairs
          la=3 lb=3:      1 shell pairs

Calculating one electron integrals          ... done (  0.0 sec)
Calculating RI/J V-Matrix + Cholesky decomp.... done (  0.1 sec)
Calculating Nuclear repulsion               ... done (  0.0 sec) ENN=   5064.098573205493 Eh

SHARK setup successfully completed in   0.6 seconds

Maximum memory used throughout the entire GTOINT-calculation: 39.7 MB


           ************************************************************
           *        Program running with 8 parallel MPI-processes     *
           *              working on a common directory               *
           ************************************************************
-------------------------------------------------------------------------------
                                 ORCA SCF
-------------------------------------------------------------------------------

------------
SCF SETTINGS
------------
Hamiltonian:
 Density Functional     Method          .... DFT(GTOs)
 Exchange Functional    Exchange        .... B88
   X-Alpha parameter    XAlpha          ....  0.666667
   Becke's b parameter  XBeta           ....  0.004200
 Correlation Functional Correlation     .... LYP
 LDA part of GGA corr.  LDAOpt          .... VWN-5
 Gradients option       PostSCFGGA      .... off
 Hybrid DFT is turned on
   Fraction HF Exchange ScalHFX         ....  0.200000
   Scaling of DF-GGA-X  ScalDFX         ....  0.720000
   Scaling of DF-GGA-C  ScalDFC         ....  0.810000
   Scaling of DF-LDA-C  ScalLDAC        ....  1.000000
   Perturbative correction              ....  0.000000
   Density functional embedding theory  .... OFF
   NL short-range parameter             ....  4.800000
 RI-approximation to the Coulomb term is turned on
   Number of AuxJ basis functions       .... 1568
   RIJ-COSX (HFX calculated with COS-X)).... on


General Settings:
 Integral files         IntName         .... input_57
 Hartree-Fock type      HFTyp           .... UHF
 Total Charge           Charge          ....   -2
 Multiplicity           Mult            ....    2
 Number of Electrons    NEL             ....  321
 Basis Dimension        Dim             ....  681
 Nuclear Repulsion      ENuc            ....   5064.0985732055 Eh

Convergence Acceleration:
 DIIS                   CNVDIIS         .... on
   Start iteration      DIISMaxIt       ....    12
   Startup error        DIISStart       ....  0.200000
   # of expansion vecs  DIISMaxEq       ....     5
   Bias factor          DIISBfac        ....   1.050
   Max. coefficient     DIISMaxC        ....  10.000
 Trust-Rad. Augm. Hess. CNVTRAH         .... auto
   Auto Start mean grad. ratio tolernc. ....  1.125000
   Auto Start start iteration           ....    20
   Auto Start num. interpolation iter.  ....    10
   Max. Number of Micro iterations      ....    16
   Max. Number of Macro iterations      .... Maxiter - #DIIS iter
   Number of Davidson start vectors     ....     2
   Converg. threshold I  (grad. norm)   ....   5.000e-05
   Converg. threshold II (energy diff.) ....   1.000e-06
   Grad. Scal. Fac. for Micro threshold ....   0.100
   Minimum threshold for Micro iter.    ....   0.010
   NR start threshold (gradient norm)   ....   0.001
   Initial trust radius                 ....   0.400
   Minimum AH scaling param. (alpha)    ....   1.000
   Maximum AH scaling param. (alpha)    .... 1000.000
   Orbital update algorithm             .... Taylor
   White noise on init. David. guess    .... on
   Maximum white noise                  ....   0.010
   Quad. conv. algorithm                .... NR
 SOSCF                  CNVSOSCF        .... off
 Level Shifting         CNVShift        .... on
   Level shift para.    LevelShift      ....    0.2500
   Turn off err/grad.   ShiftErr        ....    0.0010
 Zerner damping         CNVZerner       .... off
 Static damping         CNVDamp         .... on
   Fraction old density DampFac         ....    0.7000
   Max. Damping (<1)    DampMax         ....    0.9800
   Min. Damping (>=0)   DampMin         ....    0.0000
   Turn off err/grad.   DampErr         ....    0.1000
 Fernandez-Rico         CNVRico         .... off

SCF Procedure:
 Maximum # iterations   MaxIter         ....   125
 SCF integral mode      SCFMode         .... Direct
   Integral package                     .... SHARK and LIBINT hybrid scheme
 Reset frequency        DirectResetFreq ....    20
 Integral Threshold     Thresh          ....  1.000e-10 Eh
 Primitive CutOff       TCut            ....  1.000e-11 Eh

Convergence Tolerance:
 Convergence Check Mode ConvCheckMode   .... Total+1el-Energy
 Convergence forced     ConvForced      .... 0
 Energy Change          TolE            ....  1.000e-06 Eh
 1-El. energy change                    ....  1.000e-03 Eh
 DIIS Error             TolErr          ....  1.000e-06


Diagonalization of the overlap matrix:
Smallest eigenvalue                        ... 8.639e-05
Time for diagonalization                   ...    0.187 sec
Threshold for overlap eigenvalues          ... 1.000e-08
Number of eigenvalues below threshold      ... 0
Time for construction of square roots      ...    0.199 sec
Total time needed                          ...    0.389 sec

Time for model grid setup =    0.353 sec

------------------------------
INITIAL GUESS: MODEL POTENTIAL
------------------------------
Loading Hartree-Fock densities                     ... done
Calculating cut-offs                               ... done
Initializing the effective Hamiltonian             ... done
Setting up the integral package (SHARK)            ... done
Starting the Coulomb interaction                   ... done (   0.3 sec)
Reading the grid                                   ... done
Mapping shells                                     ... done
Starting the XC term evaluation                    ... done (   0.2 sec)
  promolecular density results
     # of electrons  =    319.004055758
     EX              =   -428.313810191
     EC              =    -12.539506522
     EX+EC           =   -440.853316713
Transforming the Hamiltonian                       ... done (   0.2 sec)
Diagonalizing the Hamiltonian                      ... done (   0.2 sec)
Back transforming the eigenvectors                 ... done (   0.1 sec)
Now organizing SCF variables                       ... done
                      ------------------
                      INITIAL GUESS DONE (   1.3 sec)
                      ------------------
-------------------
DFT GRID GENERATION
-------------------

General Integration Accuracy     IntAcc      ... 4.388
Radial Grid Type                 RadialGrid  ... OptM3 with GC (2021)
Angular Grid (max. ang.)         AngularGrid ... 4 (Lebedev-302)
Angular grid pruning method      GridPruning ... 4 (adaptive)
Weight generation scheme         WeightScheme... Becke
Basis function cutoff            BFCut       ... 1.0000e-10
Integration weight cutoff        WCut        ... 1.0000e-14
Angular grids for H and He will be reduced by one unit
Partially contracted basis set               ... off
Rotationally invariant grid construction     ... off

Total number of grid points                  ...   237103
Total number of batches                      ...     3721
Average number of points per batch           ...       63
Average number of grid points per atom       ...     5928
Time for grid setup =    1.787 sec

--------------------
COSX GRID GENERATION
--------------------

GRIDX 1
-------
General Integration Accuracy     IntAcc      ... 3.816
Radial Grid Type                 RadialGrid  ... OptM3 with GC (2021)
Angular Grid (max. ang.)         AngularGrid ... 1 (Lebedev-50)
Angular grid pruning method      GridPruning ... 4 (adaptive)
Weight generation scheme         WeightScheme... Becke
Basis function cutoff            BFCut       ... 1.0000e-10
Integration weight cutoff        WCut        ... 1.0000e-14
Angular grids for H and He will be reduced by one unit
Partially contracted basis set               ... on
Rotationally invariant grid construction     ... off

Total number of grid points                  ...    29152
Total number of batches                      ...      475
Average number of points per batch           ...       61
Average number of grid points per atom       ...      729
UseSFitting                                  ... on

GRIDX 2
-------
General Integration Accuracy     IntAcc      ... 4.020
Radial Grid Type                 RadialGrid  ... OptM3 with GC (2021)
Angular Grid (max. ang.)         AngularGrid ... 2 (Lebedev-110)
Angular grid pruning method      GridPruning ... 4 (adaptive)
Weight generation scheme         WeightScheme... Becke
Basis function cutoff            BFCut       ... 1.0000e-10
Integration weight cutoff        WCut        ... 1.0000e-14
Angular grids for H and He will be reduced by one unit
Partially contracted basis set               ... on
Rotationally invariant grid construction     ... off

Total number of grid points                  ...    63971
Total number of batches                      ...     1018
Average number of points per batch           ...       62
Average number of grid points per atom       ...     1599
UseSFitting                                  ... on

GRIDX 3
-------
General Integration Accuracy     IntAcc      ... 4.338
Radial Grid Type                 RadialGrid  ... OptM3 with GC (2021)
Angular Grid (max. ang.)         AngularGrid ... 3 (Lebedev-194)
Angular grid pruning method      GridPruning ... 4 (adaptive)
Weight generation scheme         WeightScheme... Becke
Basis function cutoff            BFCut       ... 1.0000e-10
Integration weight cutoff        WCut        ... 1.0000e-14
Angular grids for H and He will be reduced by one unit
Partially contracted basis set               ... on
Rotationally invariant grid construction     ... off

Total number of grid points                  ...   147044
Total number of batches                      ...     2317
Average number of points per batch           ...       63
Average number of grid points per atom       ...     3676
UseSFitting                                  ... on

Time for X-Grid setup             =    1.908 sec

--------------
SCF ITERATIONS
--------------
ITER       Energy         Delta-E        Max-DP      RMS-DP      [F,P]     Damp
               ***  Starting incremental Fock matrix formation  ***
  0  -6336.7378475398   0.000000000000 0.05209894  0.00065537  0.2329074 0.7000
  1  -6337.0822146128  -0.344367072984 0.11053139  0.00061796  0.1558442 0.7000
                               ***Turning on DIIS***
  2  -6337.2441255050  -0.161910892210 0.04854640  0.00032370  0.1091139 0.7000
  3  -6337.3338257540  -0.089700248962 0.06451774  0.00060988  0.0772360 0.0000
  4  -6337.5525017974  -0.218676043405 0.06296771  0.00031163  0.0151024 0.0000
  5  -6337.5590578518  -0.006556054361 0.01592637  0.00009396  0.0151072 0.0000
  6  -6337.5608103854  -0.001752533616 0.00384974  0.00004603  0.0045483 0.0000
  7  -6337.5613662884  -0.000555903037 0.00210992  0.00002907  0.0021705 0.0000
  8  -6337.5616494491  -0.000283160722 0.00353201  0.00002573  0.0021326 0.0000
  9  -6337.5618319160  -0.000182466868 0.00194837  0.00002050  0.0013575 0.0000
 10  -6337.5619524925  -0.000120576548 0.00153245  0.00001690  0.0010096 0.0000
 11  -6337.5620290575  -0.000076564947 0.00367740  0.00003843  0.0007519 0.0000
               *** Restarting incremental Fock matrix formation ***
                                   *** Resetting DIIS ***
 12  -6337.5620576497  -0.000028592236 0.00085526  0.00000823  0.0011224 0.0000
 13  -6337.5620270310   0.000030618754 0.00038656  0.00000383  0.0025132 0.0000
 14  -6337.5620626326  -0.000035601671 0.00038649  0.00000476  0.0009443 0.0000
 15  -6337.5620700912  -0.000007458542 0.00018778  0.00000244  0.0001878 0.0000
 16  -6337.5620707841  -0.000000692894 0.00010936  0.00000126  0.0000853 0.0000
 17  -6337.5620710378  -0.000000253680 0.00007333  0.00000092  0.0000592 0.0000
 18  -6337.5620710617  -0.000000023970 0.00017272  0.00000092  0.0000475 0.0000
                 **** Energy Check signals convergence ****

               *****************************************************
               *                     SUCCESS                       *
               *           SCF CONVERGED AFTER  19 CYCLES          *
               *****************************************************

Old exchange energy                            =    -85.937298027 Eh
New exchange energy                            =    -85.937249458 Eh
Exchange energy change after final integration =      0.000048569 Eh
Total energy after final integration           =  -6337.562022744 Eh
Final COS-X integration done in                =    21.443 sec

----------------
TOTAL SCF ENERGY
----------------

Total Energy       :        -6337.56202274 Eh         -172453.83002 eV

Components:
Nuclear Repulsion  :         5064.09857321 Eh          137801.12785 eV
Electronic Energy  :       -11401.66059595 Eh         -310254.95787 eV
One Electron Energy:       -18897.99651867 Eh         -514240.62876 eV
Two Electron Energy:         7496.33592272 Eh          203985.67089 eV
Max COSX asymmetry :            0.00000115 Eh               0.00003 eV

Virial components:
Potential Energy   :       -12659.48978288 Eh         -344482.23013 eV
Kinetic Energy     :         6321.92776013 Eh          172028.40011 eV
Virial Ratio       :            2.00247302


DFT components:
N(Alpha)           :      161.000116477569 electrons
N(Beta)            :      160.000114966265 electrons
N(Total)           :      321.000231443834 electrons
E(X)               :     -341.522631840061 Eh       
E(C)               :      -14.724148599351 Eh       
E(XC)              :     -356.246780439412 Eh       
DFET-embed. en.    :        0.000000000000 Eh       

---------------
SCF CONVERGENCE
---------------

  Last Energy change         ...   -2.5084e-07  Tolerance :   1.0000e-06
  Last MAX-Density change    ...    0.0000e+00  Tolerance :   1.0000e-05
  Last RMS-Density change    ...    0.0000e+00  Tolerance :   1.0000e-06
  Last DIIS Error            ...    1.6457e-05  Tolerance :   1.0000e-06

             **** THE GBW FILE WAS UPDATED (input_57.gbw) ****
             **** DENSITY input_57.scfp WAS UPDATED ****
             **** ENERGY FILE WAS UPDATED (input_57.en.tmp) ****
----------------------
UHF SPIN CONTAMINATION
----------------------

Warning: in a DFT calculation there is little theoretical justification to 
         calculate <S**2> as in Hartree-Fock theory. We will do it anyways
         but you should keep in mind that the values have only limited relevance

Expectation value of <S**2>     :     0.766028
Ideal value S*(S+1) for S=0.5   :     0.750000
Deviation                       :     0.016028

             **** THE GBW FILE WAS UPDATED (input_57.gbw) ****
             **** DENSITY input_57.scfp WAS UPDATED ****
----------------
ORBITAL ENERGIES
----------------
                 SPIN UP ORBITALS
  NO   OCC          E(Eh)            E(eV) 
   0   1.0000    -196.680469     -5351.9477 
   1   1.0000     -88.733026     -2414.5484 
   2   1.0000     -88.731107     -2414.4962 
   3   1.0000     -88.730886     -2414.4902 
   4   1.0000     -88.728281     -2414.4193 
   5   1.0000     -88.727473     -2414.3973 
   6   1.0000     -88.723128     -2414.2791 
   7   1.0000     -88.721468     -2414.2339 
   8   1.0000     -88.714160     -2414.0350 
   9   1.0000     -88.652901     -2412.3681 
  10   1.0000     -88.650689     -2412.3079 
  11   1.0000     -88.643830     -2412.1213 
  12   1.0000     -88.641825     -2412.0667 
  13   1.0000     -22.055617      -600.1638 
  14   1.0000     -18.895710      -514.1784 
  15   1.0000     -18.562075      -505.0997 
  16   1.0000     -18.556892      -504.9587 
  17   1.0000     -18.556821      -504.9568 
  18   1.0000     -10.075497      -274.1682 
  19   1.0000     -10.072222      -274.0791 
  20   1.0000     -10.062353      -273.8105 
  21   1.0000     -10.062192      -273.8062 
  22   1.0000     -10.060446      -273.7587 
  23   1.0000     -10.060082      -273.7488 
  24   1.0000     -10.050266      -273.4817 
  25   1.0000     -10.048215      -273.4258 
  26   1.0000     -10.046979      -273.3922 
  27   1.0000     -10.044549      -273.3261 
  28   1.0000     -10.033963      -273.0380 
  29   1.0000     -10.030393      -272.9409 
  30   1.0000     -10.016301      -272.5574 
  31   1.0000     -10.016185      -272.5543 
  32   1.0000      -7.786450      -211.8801 
  33   1.0000      -7.784751      -211.8338 
  34   1.0000      -7.784414      -211.8247 
  35   1.0000      -7.784293      -211.8214 
  36   1.0000      -7.782771      -211.7800 
  37   1.0000      -7.781647      -211.7494 
  38   1.0000      -7.774393      -211.5520 
  39   1.0000      -7.767923      -211.3759 
  40   1.0000      -7.703925      -209.6344 
  41   1.0000      -7.702449      -209.5943 
  42   1.0000      -7.701192      -209.5601 
  43   1.0000      -7.698514      -209.4872 
  44   1.0000      -5.751474      -156.5056 
  45   1.0000      -5.749511      -156.4521 
  46   1.0000      -5.749389      -156.4488 
  47   1.0000      -5.749340      -156.4475 
  48   1.0000      -5.748026      -156.4117 
  49   1.0000      -5.747278      -156.3914 
  50   1.0000      -5.746638      -156.3740 
  51   1.0000      -5.745959      -156.3555 
  52   1.0000      -5.745905      -156.3540 
  53   1.0000      -5.744796      -156.3238 
  54   1.0000      -5.743214      -156.2808 
  55   1.0000      -5.742599      -156.2641 
  56   1.0000      -5.741219      -156.2265 
  57   1.0000      -5.740312      -156.2018 
  58   1.0000      -5.739230      -156.1724 
  59   1.0000      -5.739047      -156.1674 
  60   1.0000      -5.738692      -156.1577 
  61   1.0000      -5.738254      -156.1458 
  62   1.0000      -5.736460      -156.0970 
  63   1.0000      -5.735125      -156.0607 
  64   1.0000      -5.731852      -155.9716 
  65   1.0000      -5.730736      -155.9412 
  66   1.0000      -5.728585      -155.8827 
  67   1.0000      -5.724532      -155.7724 
  68   1.0000      -5.670125      -154.2920 
  69   1.0000      -5.668332      -154.2432 
  70   1.0000      -5.666549      -154.1946 
  71   1.0000      -5.663804      -154.1199 
  72   1.0000      -5.662690      -154.0896 
  73   1.0000      -5.661264      -154.0508 
  74   1.0000      -5.660856      -154.0397 
  75   1.0000      -5.659535      -154.0038 
  76   1.0000      -5.659479      -154.0023 
  77   1.0000      -5.658068      -153.9639 
  78   1.0000      -5.656910      -153.9323 
  79   1.0000      -5.655552      -153.8954 
  80   1.0000      -2.449443       -66.6527 
  81   1.0000      -1.490821       -40.5673 
  82   1.0000      -1.479369       -40.2557 
  83   1.0000      -1.478096       -40.2210 
  84   1.0000      -0.718335       -19.5469 
  85   1.0000      -0.713403       -19.4127 
  86   1.0000      -0.693566       -18.8729 
  87   1.0000      -0.692325       -18.8391 
  88   1.0000      -0.654952       -17.8221 
  89   1.0000      -0.646193       -17.5838 
  90   1.0000      -0.642817       -17.4919 
  91   1.0000      -0.616042       -16.7634 
  92   1.0000      -0.613451       -16.6928 
  93   1.0000      -0.589198       -16.0329 
  94   1.0000      -0.588535       -16.0149 
  95   1.0000      -0.560090       -15.2408 
  96   1.0000      -0.558370       -15.1940 
  97   1.0000      -0.502833       -13.6828 
  98   1.0000      -0.502134       -13.6638 
  99   1.0000      -0.493302       -13.4234 
 100   1.0000      -0.489951       -13.3322 
 101   1.0000      -0.478646       -13.0246 
 102   1.0000      -0.475834       -12.9481 
 103   1.0000      -0.445017       -12.1095 
 104   1.0000      -0.441630       -12.0174 
 105   1.0000      -0.418096       -11.3770 
 106   1.0000      -0.412635       -11.2284 
 107   1.0000      -0.359937        -9.7944 
 108   1.0000      -0.358632        -9.7589 
 109   1.0000      -0.336097        -9.1457 
 110   1.0000      -0.334690        -9.1074 
 111   1.0000      -0.317758        -8.6466 
 112   1.0000      -0.315922        -8.5967 
 113   1.0000      -0.294654        -8.0179 
 114   1.0000      -0.291419        -7.9299 
 115   1.0000      -0.289598        -7.8804 
 116   1.0000      -0.285153        -7.7594 
 117   1.0000      -0.256620        -6.9830 
 118   1.0000      -0.255708        -6.9582 
 119   1.0000      -0.252744        -6.8775 
 120   1.0000      -0.251078        -6.8322 
 121   1.0000      -0.234251        -6.3743 
 122   1.0000      -0.232763        -6.3338 
 123   1.0000      -0.230149        -6.2627 
 124   1.0000      -0.227464        -6.1896 
 125   1.0000      -0.220038        -5.9875 
 126   1.0000      -0.219395        -5.9700 
 127   1.0000      -0.217792        -5.9264 
 128   1.0000      -0.215096        -5.8531 
 129   1.0000      -0.197408        -5.3717 
 130   1.0000      -0.192979        -5.2512 
 131   1.0000      -0.191209        -5.2031 
 132   1.0000      -0.184146        -5.0109 
 133   1.0000      -0.178381        -4.8540 
 134   1.0000      -0.170536        -4.6405 
 135   1.0000      -0.150705        -4.1009 
 136   1.0000      -0.148360        -4.0371 
 137   1.0000      -0.146374        -3.9830 
 138   1.0000      -0.143338        -3.9004 
 139   1.0000      -0.131991        -3.5917 
 140   1.0000      -0.121295        -3.3006 
 141   1.0000      -0.117759        -3.2044 
 142   1.0000      -0.116761        -3.1772 
 143   1.0000      -0.115009        -3.1296 
 144   1.0000      -0.099844        -2.7169 
 145   1.0000      -0.097249        -2.6463 
 146   1.0000      -0.088059        -2.3962 
 147   1.0000      -0.080279        -2.1845 
 148   1.0000      -0.071815        -1.9542 
 149   1.0000      -0.066169        -1.8005 
 150   1.0000      -0.060649        -1.6503 
 151   1.0000      -0.053196        -1.4475 
 152   1.0000      -0.046162        -1.2561 
 153   1.0000      -0.037263        -1.0140 
 154   1.0000      -0.035476        -0.9654 
 155   1.0000      -0.031520        -0.8577 
 156   1.0000      -0.026357        -0.7172 
 157   1.0000      -0.024489        -0.6664 
 158   1.0000      -0.016950        -0.4612 
 159   1.0000       0.020514         0.5582 
 160   1.0000       0.039530         1.0757 
 161   0.0000       0.137854         3.7512 
 162   0.0000       0.139378         3.7927 
 163   0.0000       0.154941         4.2162 
 164   0.0000       0.157761         4.2929 
 165   0.0000       0.163537         4.4501 
 166   0.0000       0.166514         4.5311 
 167   0.0000       0.171614         4.6699 
 168   0.0000       0.172343         4.6897 
 169   0.0000       0.173518         4.7217 
 170   0.0000       0.174209         4.7405 
 171   0.0000       0.176438         4.8011 
 172   0.0000       0.185089         5.0365 
 173   0.0000       0.186334         5.0704 
 174   0.0000       0.195797         5.3279 
 175   0.0000       0.198588         5.4039 
 176   0.0000       0.199442         5.4271 
 177   0.0000       0.202577         5.5124 
 178   0.0000       0.206430         5.6172 
 179   0.0000       0.209578         5.7029 
 180   0.0000       0.214147         5.8272 
 181   0.0000       0.214777         5.8444 
 182   0.0000       0.216385         5.8881 
 183   0.0000       0.217640         5.9223 
 184   0.0000       0.223249         6.0749 
 185   0.0000       0.227707         6.1962 
 186   0.0000       0.229840         6.2543 
 187   0.0000       0.231651         6.3036 
 188   0.0000       0.233170         6.3449 
 189   0.0000       0.240318         6.5394 
 190   0.0000       0.241993         6.5850 
 191   0.0000       0.242533         6.5997 
 192   0.0000       0.251017         6.8305 
 193   0.0000       0.254653         6.9295 
 194   0.0000       0.259088         7.0501 
 195   0.0000       0.263268         7.1639 
 196   0.0000       0.269465         7.3325 
 197   0.0000       0.273281         7.4364 
 198   0.0000       0.274950         7.4818 
 199   0.0000       0.279602         7.6084 
 200   0.0000       0.283614         7.7175 
 201   0.0000       0.295723         8.0470 
 202   0.0000       0.299928         8.1615 
 203   0.0000       0.313057         8.5187 
 204   0.0000       0.317907         8.6507 
 205   0.0000       0.322510         8.7759 
 206   0.0000       0.333621         9.0783 
 207   0.0000       0.334778         9.1098 
 208   0.0000       0.335628         9.1329 
 209   0.0000       0.345583         9.4038 
 210   0.0000       0.349758         9.5174 
 211   0.0000       0.351938         9.5767 
 212   0.0000       0.353385         9.6161 
 213   0.0000       0.357327         9.7234 
 214   0.0000       0.358779         9.7629 
 215   0.0000       0.366375         9.9696 
 216   0.0000       0.368572        10.0293 
 217   0.0000       0.370752        10.0887 
 218   0.0000       0.380242        10.3469 
 219   0.0000       0.382334        10.4038 
 220   0.0000       0.388556        10.5732 
 221   0.0000       0.389305        10.5935 
 222   0.0000       0.393594        10.7102 
 223   0.0000       0.398315        10.8387 
 224   0.0000       0.401742        10.9319 
 225   0.0000       0.403574        10.9818 
 226   0.0000       0.409876        11.1533 
 227   0.0000       0.413672        11.2566 
 228   0.0000       0.417673        11.3655 
 229   0.0000       0.420867        11.4524 
 230   0.0000       0.424182        11.5426 
 231   0.0000       0.425612        11.5815 
 232   0.0000       0.431235        11.7345 
 233   0.0000       0.435118        11.8402 
 234   0.0000       0.439256        11.9528 
 235   0.0000       0.443028        12.0554 
 236   0.0000       0.446447        12.1484 
 237   0.0000       0.454443        12.3660 
 238   0.0000       0.455985        12.4080 
 239   0.0000       0.463523        12.6131 
 240   0.0000       0.466159        12.6848 
 241   0.0000       0.468172        12.7396 
 242   0.0000       0.473689        12.8897 
 243   0.0000       0.475700        12.9444 
 244   0.0000       0.477599        12.9961 
 245   0.0000       0.480494        13.0749 
 246   0.0000       0.482332        13.1249 
 247   0.0000       0.483091        13.1456 
 248   0.0000       0.488269        13.2865 
 249   0.0000       0.491316        13.3694 
 250   0.0000       0.495509        13.4835 
 251   0.0000       0.502740        13.6802 
 252   0.0000       0.503513        13.7013 
 253   0.0000       0.508706        13.8426 
 254   0.0000       0.512259        13.9393 
 255   0.0000       0.515273        14.0213 
 256   0.0000       0.516221        14.0471 
 257   0.0000       0.519071        14.1246 
 258   0.0000       0.521648        14.1948 
 259   0.0000       0.522532        14.2188 
 260   0.0000       0.527071        14.3423 
 261   0.0000       0.527934        14.3658 
 262   0.0000       0.528463        14.3802 
 263   0.0000       0.531813        14.4714 
 264   0.0000       0.533800        14.5254 
 265   0.0000       0.536878        14.6092 
 266   0.0000       0.538951        14.6656 
 267   0.0000       0.544036        14.8040 
 268   0.0000       0.547433        14.8964 
 269   0.0000       0.551179        14.9983 
 270   0.0000       0.554431        15.0868 
 271   0.0000       0.557329        15.1657 
 272   0.0000       0.564081        15.3494 
 273   0.0000       0.566878        15.4255 
 274   0.0000       0.572395        15.5756 
 275   0.0000       0.573585        15.6080 
 276   0.0000       0.576991        15.7007 
 277   0.0000       0.578684        15.7468 
 278   0.0000       0.581876        15.8336 
 279   0.0000       0.584315        15.9000 
 280   0.0000       0.585904        15.9433 
 281   0.0000       0.588293        16.0083 
 282   0.0000       0.594635        16.1808 
 283   0.0000       0.595701        16.2099 
 284   0.0000       0.602148        16.3853 
 285   0.0000       0.606260        16.4972 
 286   0.0000       0.607343        16.5266 
 287   0.0000       0.611082        16.6284 
 288   0.0000       0.613598        16.6969 
 289   0.0000       0.618825        16.8391 
 290   0.0000       0.620477        16.8840 
 291   0.0000       0.621861        16.9217 
 292   0.0000       0.628007        17.0889 
 293   0.0000       0.634792        17.2736 
 294   0.0000       0.639608        17.4046 
 295   0.0000       0.641548        17.4574 
 296   0.0000       0.643440        17.5089 
 297   0.0000       0.652768        17.7627 
 298   0.0000       0.655489        17.8368 
 299   0.0000       0.666291        18.1307 
 300   0.0000       0.674404        18.3515 
 301   0.0000       0.675994        18.3947 
 302   0.0000       0.680090        18.5062 
 303   0.0000       0.703140        19.1334 
 304   0.0000       0.709208        19.2985 
 305   0.0000       0.713985        19.4285 
 306   0.0000       0.723563        19.6892 
 307   0.0000       0.726866        19.7790 
 308   0.0000       0.738167        20.0865 
 309   0.0000       0.745320        20.2812 
 310   0.0000       0.753296        20.4982 
 311   0.0000       0.756730        20.5917 
 312   0.0000       0.763570        20.7778 
 313   0.0000       0.764327        20.7984 
 314   0.0000       0.766708        20.8632 
 315   0.0000       0.784269        21.3410 
 316   0.0000       0.785717        21.3804 
 317   0.0000       0.794523        21.6201 
 318   0.0000       0.804077        21.8800 
 319   0.0000       0.810729        22.0611 
 320   0.0000       0.820332        22.3224 
 321   0.0000       0.822276        22.3753 
 322   0.0000       0.831016        22.6131 
 323   0.0000       0.833234        22.6734 
 324   0.0000       0.842391        22.9226 
 325   0.0000       0.845288        23.0014 
 326   0.0000       0.858609        23.3639 
 327   0.0000       0.859305        23.3829 
 328   0.0000       0.864031        23.5115 
 329   0.0000       0.865460        23.5504 
 330   0.0000       0.872243        23.7349 
 331   0.0000       0.875048        23.8113 
 332   0.0000       0.877551        23.8794 
 333   0.0000       0.881970        23.9996 
 334   0.0000       0.884691        24.0737 
 335   0.0000       0.887522        24.1507 
 336   0.0000       0.896494        24.3948 
 337   0.0000       0.908634        24.7252 
 338   0.0000       0.915483        24.9116 
 339   0.0000       0.917595        24.9690 
 340   0.0000       0.919227        25.0134 
 341   0.0000       0.930004        25.3067 
 342   0.0000       0.937249        25.5038 
 343   0.0000       0.944193        25.6928 
 344   0.0000       0.949115        25.8267 
 345   0.0000       0.950854        25.8741 
 346   0.0000       0.958252        26.0754 
 347   0.0000       0.961883        26.1742 
 348   0.0000       0.968451        26.3529 
 349   0.0000       0.971054        26.4237 
 350   0.0000       0.976253        26.5652 
 351   0.0000       0.982437        26.7335 
 352   0.0000       0.987289        26.8655 
 353   0.0000       0.989601        26.9284 
 354   0.0000       0.994625        27.0651 
 355   0.0000       1.009763        27.4771 
 356   0.0000       1.014479        27.6054 
 357   0.0000       1.015501        27.6332 
 358   0.0000       1.018465        27.7138 
 359   0.0000       1.024271        27.8718 
 360   0.0000       1.031966        28.0812 
 361   0.0000       1.035913        28.1886 
 362   0.0000       1.037469        28.2310 
 363   0.0000       1.047815        28.5125 
 364   0.0000       1.049560        28.5600 
 365   0.0000       1.063088        28.9281 
 366   0.0000       1.067986        29.0614 
 367   0.0000       1.071987        29.1702 
 368   0.0000       1.073151        29.2019 
 369   0.0000       1.077311        29.3151 
 370   0.0000       1.080128        29.3918 
 371   0.0000       1.089719        29.6528 
 372   0.0000       1.098478        29.8911 
 373   0.0000       1.100144        29.9364 
 374   0.0000       1.103058        30.0157 
 375   0.0000       1.108104        30.1530 
 376   0.0000       1.115659        30.3586 
 377   0.0000       1.117308        30.4035 
 378   0.0000       1.127122        30.6706 
 379   0.0000       1.130484        30.7620 
 380   0.0000       1.158270        31.5181 
 381   0.0000       1.164650        31.6917 
 382   0.0000       1.170052        31.8387 
 383   0.0000       1.170478        31.8503 
 384   0.0000       1.181447        32.1488 
 385   0.0000       1.216808        33.1110 
 386   0.0000       1.226700        33.3802 
 387   0.0000       1.228052        33.4170 
 388   0.0000       1.230049        33.4713 
 389   0.0000       1.240345        33.7515 
 390   0.0000       1.255089        34.1527 
 391   0.0000       1.260009        34.2866 
 392   0.0000       1.270237        34.5649 
 393   0.0000       1.278784        34.7975 
 394   0.0000       1.305275        35.5183 
 395   0.0000       1.306268        35.5454 
 396   0.0000       1.308933        35.6179 
 397   0.0000       1.312457        35.7138 
 398   0.0000       1.319730        35.9117 
 399   0.0000       1.334131        36.3035 
 400   0.0000       1.350517        36.7494 
 401   0.0000       1.366271        37.1781 
 402   0.0000       1.389491        37.8100 
 403   0.0000       1.399068        38.0706 
 404   0.0000       1.402051        38.1518 
 405   0.0000       1.425395        38.7870 
 406   0.0000       1.427820        38.8530 
 407   0.0000       1.429620        38.9019 
 408   0.0000       1.430864        38.9358 
 409   0.0000       1.432279        38.9743 
 410   0.0000       1.442799        39.2605 
 411   0.0000       1.444279        39.3008 
 412   0.0000       1.452827        39.5334 
 413   0.0000       1.487211        40.4691 
 414   0.0000       1.488895        40.5149 
 415   0.0000       1.489628        40.5348 
 416   0.0000       1.500335        40.8262 
 417   0.0000       1.503207        40.9043 
 418   0.0000       1.511590        41.1325 
 419   0.0000       1.517159        41.2840 
 420   0.0000       1.527458        41.5643 
 421   0.0000       1.529318        41.6149 
[...]
Total number of batches                      ...      301
Average number of points per batch           ...       59
Average number of grid points per atom       ...      444

Memory available               ... 821.9 MB
Memory needed per perturbation ...  41.3 MB
Perturbations treated per batch... 3
Number of batches              ... 1
     CP-SCF ITERATION   0:   4.1141e-02 (   4.8 sec   0/  3 done)
     CP-SCF ITERATION   1:   1.4235e-03 (   4.9 sec   1/  3 done)
     CP-SCF ITERATION   2:   1.4929e-04 (   4.0 sec   3/  3 done)
                    *** THE CP-SCF HAS CONVERGED ***

Forming final perturbed densities           ... done
Transforming perturbed density to AO basis  ... done

 Raw HFC matrix (all values in MHz): 
 -----------------------------------
                 0.1058               0.0201              -0.1099
                 0.0205              -0.0837              -0.0115
                -0.1097              -0.0113              -0.0210

 A(FC)           0.0002               0.0002               0.0002
 A(SD)          -0.0850              -0.0872               0.1722
 A(ORB+DIA)      0.0004               0.0012              -0.0011    A(PC) =   0.0002
 A(ORB)          0.0005               0.0013              -0.0011    A(PC) =   0.0002
 A(DIA)         -0.0000              -0.0000               0.0000    A(PC) =  -0.0000
             ----------           ----------           ----------
 A(Tot)         -0.0844              -0.0858               0.1713    A(iso)=    0.0004
 Orientation: 
  X           0.4625305            0.2057344            0.8624030
  Y           0.2586275           -0.9617081            0.0907155
  Z           0.8480433            0.1810824           -0.4980279

Notes:  (1) The A matrix conforms to the "SAI" spin Hamiltonian convention.
        (2) Tensor is right-handed.

 Raw EFG matrix (all values in a.u.**-3):
 -----------------------------------
             0.2760       0.0300       0.0735
             0.0300      -0.1438      -0.0000
             0.0735      -0.0000      -0.1323

 V(El)       0.5468       0.8169      -1.3637
 V(Nuc)     -0.6871      -0.9675       1.6546
         ----------   ----------   ----------
 V(Tot)     -0.1403      -0.1506       0.2909 
 Orientation: 
  X       0.0791193   -0.1657995    0.9829805
  Y       0.6822908    0.7279245    0.0678622
  Z      -0.7267870    0.6653093    0.1707164

Note: Tensor is right-handed


 Quadrupole tensor eigenvalues (in MHz;Q= 0.0029 I=  1.0)
  e**2qQ            =     0.195326 MHz 
  e**2qQ/(4I*(2I-1))=     0.048832 MHz 
  eta               =     0.035530
  NOTE: the diagonal representation of the SH term I*Q*I = e**2qQ/(4I(2I-1))*[-(1-eta),-(1+eta),2]

 RHO(0)=      0.443945793 a.u.**-3

 -----------------------------------------------------------
 Nucleus  39H : A:ISTP=    1 I=  0.5 P=533.5514 MHz/au**3
                Q:ISTP=    2 I=  1.0 Q=  0.0029 barn     
 -----------------------------------------------------------
 Solving for nuclear perturbation:
Forming RHS of the CP-SCF equations         ... 
Calc. nucleus orbit integrals (SHARK)       ... done

------------------------------------------------------------------------------
                           ORCA CP-SCF CALCULATION
------------------------------------------------------------------------------

Input orbitals are from        ... input_57.gbw
Input Perturbation             ... input_57.pin.tmp
Wavefunction output            ... input_57.pout.tmp
Perturbation mode              ... Imaginary perturbation
Solver                         ... POPLE
Max. number of iterations      ... 64
Convergence tolerance          ... 1.000e-03
Integral handling              ... Direct
DFT GridXC                     ... 1
COSX GridX                     ... 1
COSX IntAccX                   ... 3.067
COSX Algorithm                 ... Auto
Number of perturbations        ... 3
Number of operators            ... 2
Orbital ranges used for CP-SCF:
 Operator 0:  Orbitals   0...160  to 161...680
 Operator 1:  Orbitals   0...159  to 160...680
Variables per perturbation     ... 167080
DFT calculation                         ... on
XC functional terms                     ... off
Hybrid DFT                              ... on
   Exchange mixing (SCF)                ...  0.200
   Exchange mixing (CP-SCF)             ...  0.200
   GGA exch. scaling(SCF)               ...  0.720
   GGA exch. scaling (CP-SCF)           ...  0.720
   GGA corr. scaling (SCF)              ...  0.810
   GGA corr. scaling (CP-SCF)           ...  0.810

CP-SCF GRID
-----------

General Integration Accuracy     IntAcc      ... 3.467
Radial Grid Type                 RadialGrid  ... OptM3 with GC (2021)
Angular Grid (max. ang.)         AngularGrid ... 1 (Lebedev-50)
Angular grid pruning method      GridPruning ... 4 (adaptive)
Weight generation scheme         WeightScheme... Becke
Basis function cutoff            BFCut       ... 1.0000e-10
Integration weight cutoff        WCut        ... 1.0000e-14
Angular grids for H and He will be reduced by one unit
Partially contracted basis set               ... off
Rotationally invariant grid construction     ... off

Total number of grid points                  ...    39311
Total number of batches                      ...      636
Average number of points per batch           ...       61
Average number of grid points per atom       ...      983

CP-SCF GRIDX
------------

General Integration Accuracy     IntAcc      ... 3.067
Radial Grid Type                 RadialGrid  ... OptM3 with GC (2021)
Angular Grid (max. ang.)         AngularGrid ... 1 (Lebedev-50)
Angular grid pruning method      GridPruning ... 4 (adaptive)
Weight generation scheme         WeightScheme... Becke
Basis function cutoff            BFCut       ... 1.0000e-10
Integration weight cutoff        WCut        ... 1.0000e-14
Angular grids for H and He will be reduced by one unit
Partially contracted basis set               ... on
Rotationally invariant grid construction     ... off

Total number of grid points                  ...    17759
Total number of batches                      ...      301
Average number of points per batch           ...       59
Average number of grid points per atom       ...      444

Memory available               ... 819.8 MB
Memory needed per perturbation ...  41.3 MB
Perturbations treated per batch... 3
Number of batches              ... 1
     CP-SCF ITERATION   0:   4.3349e-02 (   4.8 sec   0/  3 done)
     CP-SCF ITERATION   1:   1.4858e-03 (   4.9 sec   0/  3 done)
     CP-SCF ITERATION   2:   1.6784e-04 (   5.0 sec   3/  3 done)
                    *** THE CP-SCF HAS CONVERGED ***

Forming final perturbed densities           ... done
Transforming perturbed density to AO basis  ... done

 Raw HFC matrix (all values in MHz): 
 -----------------------------------
                 0.1237               0.0632              -0.1800
                 0.0634              -0.1216              -0.0419
                -0.1800              -0.0417              -0.0185

 A(FC)          -0.0059              -0.0059              -0.0059
 A(SD)          -0.1325              -0.1362               0.2687
 A(ORB+DIA)      0.0019               0.0009              -0.0017    A(PC) =   0.0004
 A(ORB)          0.0020               0.0009              -0.0017    A(PC) =   0.0004
 A(DIA)         -0.0000              -0.0001               0.0000    A(PC) =  -0.0000
             ----------           ----------           ----------
 A(Tot)         -0.1364              -0.1412               0.2611    A(iso)=   -0.0055
 Orientation: 
  X           0.0290436            0.5838332           -0.8113540
  Y          -0.9554225           -0.2223708           -0.1942141
  Z          -0.2938101            0.7808265            0.5513489

Notes:  (1) The A matrix conforms to the "SAI" spin Hamiltonian convention.
        (2) Tensor is right-handed.

 Raw EFG matrix (all values in a.u.**-3):
 -----------------------------------
            -0.0572      -0.1510      -0.0880
            -0.1510       0.1112       0.1495
            -0.0880       0.1495      -0.0540

 V(El)       0.6390       0.4542      -1.0932
 V(Nuc)     -0.7810      -0.6001       1.3810
         ----------   ----------   ----------
 V(Tot)     -0.1420      -0.1459       0.2879 
 Orientation: 
  X      -0.1988394    0.8696462    0.4518610
  Y       0.4075663    0.4926833   -0.7688647
  Z      -0.8912646    0.0312827   -0.4524033

Note: Tensor is right-handed


 Quadrupole tensor eigenvalues (in MHz;Q= 0.0029 I=  1.0)
  e**2qQ            =     0.193299 MHz 
  e**2qQ/(4I*(2I-1))=     0.048325 MHz 
  eta               =     0.013490
  NOTE: the diagonal representation of the SH term I*Q*I = e**2qQ/(4I(2I-1))*[-(1-eta),-(1+eta),2]

 RHO(0)=      0.442386925 a.u.**-3

 -----------------------------------------------------------
 Nucleus   0V : A:ISTP=   51 I=  3.5 P=140.5173 MHz/au**3
                Q:ISTP=   51 I=  3.5 Q= -0.0430 barn     
 -----------------------------------------------------------
 Solving for nuclear perturbation:
Forming RHS of the CP-SCF equations         ... 
Calc. nucleus orbit integrals (SHARK)       ... done

------------------------------------------------------------------------------
                           ORCA CP-SCF CALCULATION
------------------------------------------------------------------------------

Input orbitals are from        ... input_57.gbw
Input Perturbation             ... input_57.pin.tmp
Wavefunction output            ... input_57.pout.tmp
Perturbation mode              ... Imaginary perturbation
Solver                         ... POPLE
Max. number of iterations      ... 64
Convergence tolerance          ... 1.000e-03
Integral handling              ... Direct
DFT GridXC                     ... 1
COSX GridX                     ... 1
COSX IntAccX                   ... 3.067
COSX Algorithm                 ... Auto
Number of perturbations        ... 3
Number of operators            ... 2
Orbital ranges used for CP-SCF:
 Operator 0:  Orbitals   0...160  to 161...680
 Operator 1:  Orbitals   0...159  to 160...680
Variables per perturbation     ... 167080
DFT calculation                         ... on
XC functional terms                     ... off
Hybrid DFT                              ... on
   Exchange mixing (SCF)                ...  0.200
   Exchange mixing (CP-SCF)             ...  0.200
   GGA exch. scaling(SCF)               ...  0.720
   GGA exch. scaling (CP-SCF)           ...  0.720
   GGA corr. scaling (SCF)              ...  0.810
   GGA corr. scaling (CP-SCF)           ...  0.810

CP-SCF GRID
-----------

General Integration Accuracy     IntAcc      ... 3.467
Radial Grid Type                 RadialGrid  ... OptM3 with GC (2021)
Angular Grid (max. ang.)         AngularGrid ... 1 (Lebedev-50)
Angular grid pruning method      GridPruning ... 4 (adaptive)
Weight generation scheme         WeightScheme... Becke
Basis function cutoff            BFCut       ... 1.0000e-10
Integration weight cutoff        WCut        ... 1.0000e-14
Angular grids for H and He will be reduced by one unit
Partially contracted basis set               ... off
Rotationally invariant grid construction     ... off

Total number of grid points                  ...    39311
Total number of batches                      ...      636
Average number of points per batch           ...       61
Average number of grid points per atom       ...      983

CP-SCF GRIDX
------------

General Integration Accuracy     IntAcc      ... 3.067
Radial Grid Type                 RadialGrid  ... OptM3 with GC (2021)
Angular Grid (max. ang.)         AngularGrid ... 1 (Lebedev-50)
Angular grid pruning method      GridPruning ... 4 (adaptive)
Weight generation scheme         WeightScheme... Becke
Basis function cutoff            BFCut       ... 1.0000e-10
Integration weight cutoff        WCut        ... 1.0000e-14
Angular grids for H and He will be reduced by one unit
Partially contracted basis set               ... on
Rotationally invariant grid construction     ... off

Total number of grid points                  ...    17759
Total number of batches                      ...      301
Average number of points per batch           ...       59
Average number of grid points per atom       ...      444

Memory available               ... 817.7 MB
Memory needed per perturbation ...  41.3 MB
Perturbations treated per batch... 3
Number of batches              ... 1
     CP-SCF ITERATION   0:   1.3682e+01 (   5.2 sec   0/  3 done)
     CP-SCF ITERATION   1:   1.8804e+00 (   4.9 sec   0/  3 done)
     CP-SCF ITERATION   2:   3.3946e-01 (   5.0 sec   0/  3 done)
     CP-SCF ITERATION   3:   3.9867e-02 (   5.0 sec   0/  3 done)
     CP-SCF ITERATION   4:   5.8659e-03 (   5.0 sec   0/  3 done)
     CP-SCF ITERATION   5:   1.6497e-03 (   5.0 sec   0/  3 done)
     CP-SCF ITERATION   6:   3.5911e-04 (   5.0 sec   3/  3 done)
                    *** THE CP-SCF HAS CONVERGED ***

Forming final perturbed densities           ... done
Transforming perturbed density to AO basis  ... done

 Raw HFC matrix (all values in MHz): 
 -----------------------------------
               -88.0522              14.9136               1.5590
                13.9091            -387.6755              14.7622
                 1.3553              14.0490             -87.2465

 A(FC)        -175.6000            -175.6000            -175.6000
 A(SD)          97.8521              94.0129            -191.8649
 A(ORB+DIA)     -7.0376              -7.5563             -21.5803    A(PC) = -12.0581
 A(ORB)         -7.0371              -7.5568             -21.5802    A(PC) = -12.0580
 A(DIA)         -0.0004               0.0005              -0.0002    A(PC) =  -0.0000
             ----------           ----------           ----------
 A(Tot)        -84.7855             -89.1435            -389.0453    A(iso)= -187.6581
 Orientation: 
  X           0.6445699            0.7629622           -0.0491755
  Y           0.0688261            0.0061534            0.9976097
  Z           0.7614411           -0.6464138           -0.0485454

Notes:  (1) The A matrix conforms to the "SAI" spin Hamiltonian convention.
        (2) Tensor is right-handed.

 Raw EFG matrix (all values in a.u.**-3):
 -----------------------------------
            -0.0621      -0.0298       0.0464
            -0.0298       0.2159       0.0246
             0.0464       0.0246      -0.1538

 V(El)       0.1034      -0.3836       0.2802
 V(Nuc)     -0.1473       0.2074      -0.0601
         ----------   ----------   ----------
 V(Tot)     -0.0439      -0.1761       0.2201 
 Orientation: 
  X      -0.9138113   -0.3945488   -0.0963336
  Y      -0.0670230   -0.0874437    0.9939122
  Z      -0.4005707    0.9147048    0.0534632

Note: Tensor is right-handed


 Quadrupole tensor eigenvalues (in MHz;Q=-0.0430 I=  3.5)
  e**2qQ            =    -2.223518 MHz 
  e**2qQ/(4I*(2I-1))=    -0.026470 MHz 
  eta               =     0.600816
  NOTE: the diagonal representation of the SH term I*Q*I = e**2qQ/(4I(2I-1))*[-(1-eta),-(1+eta),2]

 RHO(0)=   8115.171709458 a.u.**-3


--------------------------------------------------------------------------------
----------------------------------------------------------------------------
                           ORCA EULER ANGLE PROGRAM
----------------------------------------------------------------------------

Only g-tensor available        -->  using g-tensor as reference tensor

Reference tensor               ...  g

g-tensor ordering              ...  |g_min> --> |gx>
                                    |g_mid> --> |gy>
                                    |g_max> --> |gz>

A- and EFG-tensor ordering     ...  the axes |Ax>, |Qx>, |Ay>, etc. are assigned
                                    such that the Euler rotation is minimal. You
                                    can find the respective eigenvalues as Ax,
                                    EFGx, Ay, etc. in the tables below.
                                    The relation of |Ax>, |Ay>,  etc. to Amin, Amid, etc.
                                    (as printed in the ORCA EPR/NMR CALCULATION Output)
                                    is obtained in the detailed printout.

Euler rotation around          ...  z - y - z
   First rotation              -->  by alpha around z
   Second rotation             -->  by beta around y'
   Third rotation              -->  by gamma around z''
   Positive / Negative angle   -->  clockwise / counterclockwise rotation

Plot EFG-tensors                    (-)
Plot HFC-tensors                    (-)
Detailed Printout                   (-)

-------------------------------------------------------------------------
          Euler rotation of hyperfine tensor to g-tensor
-------------------------------------------------------------------------

-------------------------------------------------------------------
 Atom  |   Alpha    Beta    Gamma   |   Ax       Ay       Az 
       |          [degrees]         |           [MHz]         
-------------------------------------------------------------------
 25H       26.2     39.7    -48.4      -0.13     0.25    -0.13
 26H      107.8     21.6   -130.5      -0.08     0.17    -0.08
 27H       98.3      7.6   -123.2      -0.07     0.13    -0.07
 28H      131.2     11.1   -146.9      -0.07     0.13    -0.07
 29H     -155.4     11.0    136.6      -0.09     0.16    -0.09
 30H       -7.2     12.6    -18.8      -0.13     0.25    -0.13
 34H      124.6     19.8   -131.5      -0.13     0.27    -0.13
 35H       32.4     40.0    -25.0      -0.05     0.20    -0.05
 36H       15.8     28.8     -6.7      -0.08     0.14    -0.08
 37H      169.8     42.6   -175.4      -0.08     0.13    -0.08
 38H     -152.2     13.0    155.5      -0.09     0.17    -0.08
 39H       -7.7     16.9      3.7      -0.14     0.26    -0.14
  0V       88.1      4.6    -81.3    -389.05   -89.14   -84.79
-------------------------------------------------------------------


-------------------------------------------------------------------------------
    Euler rotation of Electric Field Gradient (EFG) tensor to g-tensor
-------------------------------------------------------------------------------

-------------------------------------------------------------------
 Atom  |   Alpha    Beta    Gamma  |   EFGx     EFGy     EFGz
       |          [degrees]        |         [a.u.**-3]       
-------------------------------------------------------------------
 25H      169.5     42.0   -136.8     -0.15     0.29    -0.14
 26H      -27.8     29.3     60.9     -0.14    -0.15     0.29
 27H       97.2      9.0    -79.1      0.28    -0.15    -0.14
 28H      111.7      9.1    -76.8     -0.15     0.29    -0.14
 29H      134.3     45.3   -105.1     -0.14    -0.15     0.29
 30H       17.3     36.6     21.9     -0.15     0.29    -0.14
 34H       81.2     40.2   -116.2      0.29    -0.15    -0.14
 35H     -119.6     30.3     84.3     -0.15    -0.14     0.29
 36H       21.6      7.6    -55.0      0.29    -0.15    -0.14
 37H       99.1      7.6    -59.3      0.28    -0.15    -0.14
 38H       45.0     44.4    -83.9     -0.15    -0.14     0.29
 39H      -74.4     36.0     45.0      0.29    -0.15    -0.14
  0V       83.5     30.6    -83.2      0.22    -0.18    -0.04
-------------------------------------------------------------------


Maximum memory used throughout the entire EPRNMR-calculation: 307.7 MB

Timings for individual modules:

Sum of individual times         ...     3714.208 sec (=  61.903 min)
GTO integral calculation        ...        1.562 sec (=   0.026 min)   0.0 %
Spin-Orbit-Coupling Matrices    ...       10.526 sec (=   0.175 min)   0.3 %
SCF iterations                  ...      199.105 sec (=   3.318 min)   5.4 %
EPR/NMR calculation             ...     3503.015 sec (=  58.384 min)  94.3 %
                             ****ORCA TERMINATED NORMALLY****
TOTAL RUN TIME: 0 days 1 hours 1 minutes 55 seconds 492 msec
