
                                 *****************
                                 * O   R   C   A *
                                 *****************

                                            #,                                       
                                            ###                                      
                                            ####                                     
                                            #####                                    
                                            ######                                   
                                           ########,                                 
                                     ,,################,,,,,                         
                               ,,#################################,,                 
                          ,,##########################################,,             
                       ,#########################################, ''#####,          
                    ,#############################################,,   '####,        
                  ,##################################################,,,,####,       
                ,###########''''           ''''###############################       
              ,#####''   ,,,,##########,,,,          '''####'''          '####       
            ,##' ,,,,###########################,,,                        '##       
           ' ,,###''''                  '''############,,,                           
         ,,##''                                '''############,,,,        ,,,,,,###''
      ,#''                                            '''#######################'''  
     '                                                          ''''####''''         
             ,#######,   #######,   ,#######,      ##                                
            ,#'     '#,  ##    ##  ,#'     '#,    #''#        ######   ,####,        
            ##       ##  ##   ,#'  ##            #'  '#       #        #'  '#        
            ##       ##  #######   ##           ,######,      #####,   #    #        
            '#,     ,#'  ##    ##  '#,     ,#' ,#      #,         ##   #,  ,#        
             '#######'   ##     ##  '#######'  #'      '#     #####' # '####'        



                  #######################################################
                  #                        -***-                        #
                  #          Department of theory and spectroscopy      #
                  #    Directorship and core code : Frank Neese         #
                  #        Max Planck Institute fuer Kohlenforschung    #
                  #                Kaiser Wilhelm Platz 1               #
                  #                 D-45470 Muelheim/Ruhr               #
                  #                      Germany                        #
                  #                                                     #
                  #                  All rights reserved                #
                  #                        -***-                        #
                  #######################################################


                         Program Version 5.0.4 -  RELEASE  -


 With contributions from (in alphabetic order):
   Daniel Aravena         : Magnetic Suceptibility
   Michael Atanasov       : Ab Initio Ligand Field Theory (pilot matlab implementation)
   Alexander A. Auer      : GIAO ZORA, VPT2 properties, NMR spectrum
   Ute Becker             : Parallelization
   Giovanni Bistoni       : ED, misc. LED, open-shell LED, HFLD
   Martin Brehm           : Molecular dynamics
   Dmytro Bykov           : SCF Hessian
   Vijay G. Chilkuri      : MRCI spin determinant printing, contributions to CSF-ICE
   Dipayan Datta          : RHF DLPNO-CCSD density
   Achintya Kumar Dutta   : EOM-CC, STEOM-CC
   Dmitry Ganyushin       : Spin-Orbit,Spin-Spin,Magnetic field MRCI
   Miquel Garcia          : C-PCM and meta-GGA Hessian, CC/C-PCM, Gaussian charge scheme
   Yang Guo               : DLPNO-NEVPT2, F12-NEVPT2, CIM, IAO-localization
   Andreas Hansen         : Spin unrestricted coupled pair/coupled cluster methods
   Benjamin Helmich-Paris : MC-RPA, TRAH-SCF, COSX integrals
   Lee Huntington         : MR-EOM, pCC
   Robert Izsak           : Overlap fitted RIJCOSX, COSX-SCS-MP3, EOM
   Marcus Kettner         : VPT2
   Christian Kollmar      : KDIIS, OOCD, Brueckner-CCSD(T), CCSD density, CASPT2, CASPT2-K
   Simone Kossmann        : Meta GGA functionals, TD-DFT gradient, OOMP2, MP2 Hessian
   Martin Krupicka        : Initial AUTO-CI
   Lucas Lang             : DCDCAS
   Marvin Lechner         : AUTO-CI (C++ implementation), FIC-MRCC
   Dagmar Lenk            : GEPOL surface, SMD
   Dimitrios Liakos       : Extrapolation schemes; Compound Job, initial MDCI parallelization
   Dimitrios Manganas     : Further ROCIS development; embedding schemes
   Dimitrios Pantazis     : SARC Basis sets
   Anastasios Papadopoulos: AUTO-CI, single reference methods and gradients
   Taras Petrenko         : DFT Hessian,TD-DFT gradient, ASA, ECA, R-Raman, ABS, FL, XAS/XES, NRVS
   Peter Pinski           : DLPNO-MP2, DLPNO-MP2 Gradient
   Christoph Reimann      : Effective Core Potentials
   Marius Retegan         : Local ZFS, SOC
   Christoph Riplinger    : Optimizer, TS searches, QM/MM, DLPNO-CCSD(T), (RO)-DLPNO pert. Triples
   Tobias Risthaus        : Range-separated hybrids, TD-DFT gradient, RPA, STAB
   Michael Roemelt        : Original ROCIS implementation
   Masaaki Saitow         : Open-shell DLPNO-CCSD energy and density
   Barbara Sandhoefer     : DKH picture change effects
   Avijit Sen             : IP-ROCIS
   Kantharuban Sivalingam : CASSCF convergence, NEVPT2, FIC-MRCI
   Bernardo de Souza      : ESD, SOC TD-DFT
   Georgi Stoychev        : AutoAux, RI-MP2 NMR, DLPNO-MP2 response
   Willem Van den Heuvel  : Paramagnetic NMR
   Boris Wezisla          : Elementary symmetry handling
   Frank Wennmohs         : Technical directorship


 We gratefully acknowledge several colleagues who have allowed us to
 interface, adapt or use parts of their codes:
   Stefan Grimme, W. Hujo, H. Kruse, P. Pracht,  : VdW corrections, initial TS optimization,
                  C. Bannwarth, S. Ehlert          DFT functionals, gCP, sTDA/sTD-DF
   Ed Valeev, F. Pavosevic, A. Kumar             : LibInt (2-el integral package), F12 methods
   Garnet Chan, S. Sharma, J. Yang, R. Olivares  : DMRG
   Ulf Ekstrom                                   : XCFun DFT Library
   Mihaly Kallay                                 : mrcc  (arbitrary order and MRCC methods)
   Jiri Pittner, Ondrej Demel                    : Mk-CCSD
   Frank Weinhold                                : gennbo (NPA and NBO analysis)
   Christopher J. Cramer and Donald G. Truhlar   : smd solvation model
   Lars Goerigk                                  : TD-DFT with DH, B97 family of functionals
   V. Asgeirsson, H. Jonsson                     : NEB implementation
   FAccTs GmbH                                   : IRC, NEB, NEB-TS, DLPNO-Multilevel, CI-OPT
                                                   MM, QMMM, 2- and 3-layer-ONIOM, Crystal-QMMM,
                                                   LR-CPCM, SF, NACMEs, symmetry and pop. for TD-DFT,
                                                   nearIR, NL-DFT gradient (VV10), updates on ESD,
                                                   ML-optimized integration grids
   S Lehtola, MJT Oliveira, MAL Marques          : LibXC Library
   Liviu Ungur et al                             : ANISO software


 Your calculation uses the libint2 library for the computation of 2-el integrals
 For citations please refer to: http://libint.valeyev.net

 Your ORCA version has been built with support for libXC version: 5.1.0
 For citations please refer to: https://tddft.org/programs/libxc/

 This ORCA versions uses:
   CBLAS   interface :  Fast vector & matrix operations
   LAPACKE interface :  Fast linear algebra routines
   SCALAPACK package :  Parallel linear algebra routines
   Shared memory     :  Shared parallel matrices
   BLAS/LAPACK       :  OpenBLAS 0.3.15  USE64BITINT DYNAMIC_ARCH NO_AFFINITY Prescott SINGLE_THREADED
        Core in use  :  Prescott
   Copyright (c) 2011-2014, The OpenBLAS Project


================================================================================

----- Orbital basis set information -----
Your calculation utilizes the basis: TZVP 

The basis set includes element-specific modifications.

Your calculation utilizes the basis: CP(PPP) 

----- AuxJ basis set information -----
Your calculation utilizes the auxiliary basis: def2/J
   F. Weigend, Phys. Chem. Chem. Phys. 8, 1057 (2006).

================================================================================
                                        WARNINGS
                       Please study these warnings very carefully!
================================================================================


WARNING: your system is open-shell and RHF/RKS was chosen
  ===> : WILL SWITCH to UHF/UKS


INFO   : the flag for use of the SHARK integral package has been found!

================================================================================
                                       INPUT FILE
================================================================================
NAME = input_1.inp
|  1> ! nofrozencore ReducedPop printbasis
|  2> ! B3LYP TZVP
|  3> 
|  4> %basis
|  5> newgto V "CP(PPP)" end
|  6> end
|  7> 
|  8> %pal
|  9> nprocs 6
| 10> end
| 11> 
| 12> % sym SymThresh 1e-2 end
| 13> * xyz -2 2 
| 14> V -1.062746421964548 0.239816975964458 0.20166729351784748
| 15> S -0.6474044300736465 1.815912421868568 -1.6610719947899455
| 16> S -0.9827422406829783 -1.5391556806565772 -1.5210224519700517
| 17> S 0.16280859873411013 1.8663088552061597 1.617558395450164
| 18> S -0.022594890723660544 -1.430960623929565 1.6885282176488186
| 19> O -2.6009755044589804 0.345089880318242 0.6025822826405485
| 20> C -0.9064123175356483 -2.9321925422895765 -0.4496275308130554
| 21> C -0.5167113352060632 -2.8889527738949314 0.838927931558097
| 22> C 0.11723423918119164 3.1595499599982833 -0.8227571538871323
| 23> C 0.44253473761253265 3.1771732637372128 0.4828473541820788
| 24> S -1.305754347072406 -4.556647899295138 -1.105699098963509
| 25> S -0.43513960284962266 -4.4573200145081895 1.7058746542420953
| 26> S 1.2625824331779287 4.657834152802254 1.0840742513598463
| 27> S 0.5479407480400235 4.623099108473433 -1.7726717408012926
| 28> C -0.9510992372174841 -5.480172506329712 0.3595958032433568
| 29> C 1.3357092273320288 5.510225860946748 -0.46224771380693436
| 30> C -1.0778772563164065 -6.839551911375712 0.4508586728406731
| 31> C 1.9345951835537918 6.728988065500331 -0.6255673754525432
| 32> S -1.6787815976934246 -7.828519169724343 -0.9060636368353984
| 33> S -0.714177300036395 -7.716257506323441 1.9591227970716607
| 34> S 2.0007827429087532 7.5428228945502855 -2.209817240981609
| 35> S 2.741967405956698 7.568417336121615 0.7238053755519415
| 36> C 4.469309789438237 7.550702217999831 0.05436076972391004
| 37> C 3.8390385374590443 7.534242830470859 -2.4406591280962964
| 38> C 4.605325531409462 8.2281334927485 -1.3118194769893157
| 39> H 4.8032929387144145 6.511185436157679 0.0092393541643003
| 40> H 5.076151266372876 8.072377848365269 0.7988242082590791
| 41> H 5.671203465788895 8.243656998603067 -1.581538799928953
| 42> H 4.273909262155326 9.268995474989433 -1.2347427394341515
| 43> H 4.015180057099837 8.047597198287951 -3.3896453397620654
| 44> H 4.161542934419024 6.495784779254304 -2.548606545476218
| 45> C -2.4153346173904606 -8.357688753626832 2.321227054463829
| 46> C -3.2385650480898684 -8.44621402794005 -0.11576619866085658
| 47> C -3.006420388792345 -9.206866930530646 1.1920020623048004
| 48> H -3.8994578551427055 -7.5898486129007265 0.04442422542669305
| 49> H -3.7016778613260466 -9.102456288504639 -0.8584471007167472
| 50> H -2.351664942568389 -10.064621058610788 1.0006061418400682
| 51> H -3.974420190774975 -9.603867204317865 1.5332201067726459
| 52> H -2.313766460670557 -8.95494464035259 3.231010914650935
| 53> H -3.058855352514385 -7.502041518707444 2.5441865655625184
| 54> * 
| 55> 
| 56> % eprnmr
| 57> gtensor true
| 58> Nuclei = all H {aiso,adip,aorb,fgrad,rho}
| 59> Nuclei = all V {aiso,adip,aorb,fgrad,rho}
| 60> end
| 61> 
| 62>                          ****END OF INPUT****
================================================================================

------------------------------------------------------------------------------
                            SYMMETRY HANDLING SETUP
------------------------------------------------------------------------------

------------------
SYMMETRY DETECTION
------------------
The point group will now be determined using a tolerance of 1.0000e-02.
Splitting atom subsets according to nuclear charge, mass and basis set.
Splitting atom subsets according to distance from the molecule's center.
Identifying relative distance patterns of the atoms.
Splitting atom subsets according to atoms' relative distance patterns.
Bring atoms of each subset into input order.
The molecule is neither linear nor planar.
There is at least one atom subset not centered around the molecule's center.
The molecule does not have a center of inversion.
Analyzing the first atom subset for its symmetry.
The subset consists of a single off-center atom.
No testing is needed for point group C1.
This point group has been found:    C1
Largest non-degenerate subgroup:    C1


Mass-centered symmetry-perfected Cartesians (point group C1):

Atom          Symmetry-perfected Cartesians (x, y, z; au)
  0      -2.003658359812    0.447736106296    0.379991953700
  1      -1.218775743221    3.426124859975   -3.140075160097
  2      -1.852472367621   -2.914035014452   -2.875419878987
  3       0.312304991361    3.521360317110    3.055638371808
  4      -0.038056827988   -2.709575988194    3.189751899536
  5      -4.910490056959    0.646673064847    1.137611486126
  6      -1.708229717049   -5.546493177396   -0.850776896726
  7      -0.971801586326   -5.464781857035    1.584240035524
  8       0.226181933077    5.965231830297   -1.555889696789
  9       0.840910786340    5.998535047938    0.911345262675
 10      -2.462876786638   -8.616268918917   -2.090572484783
 11      -0.817653351903   -8.428566419208    3.222531914097
 12       2.390576347712    8.796578625479    2.047499442688
 13       1.040099278918    8.730938904448   -3.350968116674
 14      -1.792675757016  -10.361477504150    0.678433585819
 15       2.528765961715   10.407365512698   -0.874625586344
 16      -2.032251492914  -12.930332291780    0.850895415554
 17       3.660496404426   12.710492301678   -1.183255019139
 18      -3.167796130801  -14.799209565473   -1.713316134742
 19      -1.344958180626  -14.587065766307    3.701101547969
 20       3.785572765079   14.248417246829   -4.177053392691
 21       5.186208792903   14.296783731950    1.366689932835
 22       8.450412837198   14.263307010270    0.101622965989
 23       7.259372780873   14.232203275508   -4.613281339575
 24       8.707445339425   15.543466594098   -2.480083549872
 25       9.081549522674   12.298904980973    0.016355847807
 26       9.597177035308   15.249131082401    1.508454981538
 27      10.721662727592   15.572801768801   -2.989779203254
 28       8.081159354209   17.510410683743   -2.334429624596
 29       7.592232013807   15.202302440334   -6.406605384491
 30       7.868817768113   12.269801957143   -4.817272395287
 31      -4.559679621141  -15.799195157450    4.385379426367
 32      -6.115359680273  -15.966483681832   -0.219870412252
 33      -5.676669850749  -17.403909350701    2.251453447607
 34      -7.364266089482  -14.348187576846    0.082845618550
 35      -6.990516066400  -17.206601831805   -1.623333922031
 36      -4.439361372692  -19.024829743013    1.889767574779
 37      -7.505924374186  -18.154131143251    2.896262103604
 38      -4.367743621014  -16.927845215234    6.104621763183
 39      -5.775757572025  -14.182256216206    4.806711841297


------------------
SYMMETRY REDUCTION
------------------
ORCA supports only abelian point groups.
It is now checked, if the determined point group is supported:
Point Group ( C1    ) is          ... supported

The point group is C1 - hence turning off symmetry
If this is a round-off problem, please increase the symmetry
        detection tolerance (%method SymThresh)

Storing the symmetry object:
Symmetry file                     ... input_1.sym.tmp
Writing symmetry information      ... done

                       ****************************
                       * Single Point Calculation *
                       ****************************

---------------------------------
CARTESIAN COORDINATES (ANGSTROEM)
---------------------------------
  V     -1.060290    0.236932    0.201083
  S     -0.644948    1.813027   -1.661656
  S     -0.980286   -1.542041   -1.521607
  S      0.165265    1.863424    1.616974
  S     -0.020139   -1.433846    1.687944
  O     -2.598519    0.342205    0.601998
  C     -0.903956   -2.935078   -0.450212
  C     -0.514255   -2.891838    0.838344
  C      0.119690    3.156665   -0.823341
  C      0.444991    3.174288    0.482263
  S     -1.303298   -4.559533   -1.106283
  S     -0.432684   -4.460205    1.705290
  S      1.265039    4.654949    1.083490
  S      0.550397    4.620214   -1.773256
  C     -0.948643   -5.483058    0.359012
  C      1.338165    5.507341   -0.462832
  C     -1.075421   -6.842437    0.450274
  C      1.937051    6.726103   -0.626152
  S     -1.676326   -7.831404   -0.906648
  S     -0.711721   -7.719143    1.958539
  S      2.003239    7.539938   -2.210401
  S      2.744423    7.565532    0.723221
  C      4.471766    7.547817    0.053777
  C      3.841495    7.531358   -2.441243
  C      4.607782    8.225248   -1.312404
  H      4.805749    6.508300    0.008655
  H      5.078607    8.069493    0.798240
  H      5.673660    8.240772   -1.582123
  H      4.276365    9.266110   -1.235327
  H      4.017636    8.044712   -3.390230
  H      4.163999    6.492900   -2.549191
  C     -2.412879   -8.360574    2.320643
  C     -3.236109   -8.449099   -0.116350
  C     -3.003964   -9.209752    1.191418
  H     -3.897002   -7.592734    0.043840
  H     -3.699222   -9.105342   -0.859031
  H     -2.349209  -10.067506    1.000022
  H     -3.971964   -9.606752    1.532636
  H     -2.311310   -8.957830    3.230427
  H     -3.056399   -7.504927    2.543602

----------------------------
CARTESIAN COORDINATES (A.U.)
----------------------------
  NO LB      ZA    FRAG     MASS         X           Y           Z
   0 V    23.0000    0    50.940   -2.003658    0.447736    0.379992
   1 S    16.0000    0    32.060   -1.218776    3.426125   -3.140075
   2 S    16.0000    0    32.060   -1.852472   -2.914035   -2.875420
   3 S    16.0000    0    32.060    0.312305    3.521360    3.055638
   4 S    16.0000    0    32.060   -0.038057   -2.709576    3.189752
   5 O     8.0000    0    15.999   -4.910490    0.646673    1.137611
   6 C     6.0000    0    12.011   -1.708230   -5.546493   -0.850777
   7 C     6.0000    0    12.011   -0.971802   -5.464782    1.584240
   8 C     6.0000    0    12.011    0.226182    5.965232   -1.555890
   9 C     6.0000    0    12.011    0.840911    5.998535    0.911345
  10 S    16.0000    0    32.060   -2.462877   -8.616269   -2.090572
  11 S    16.0000    0    32.060   -0.817653   -8.428566    3.222532
  12 S    16.0000    0    32.060    2.390576    8.796579    2.047499
  13 S    16.0000    0    32.060    1.040099    8.730939   -3.350968
  14 C     6.0000    0    12.011   -1.792676  -10.361478    0.678434
  15 C     6.0000    0    12.011    2.528766   10.407366   -0.874626
  16 C     6.0000    0    12.011   -2.032251  -12.930332    0.850895
  17 C     6.0000    0    12.011    3.660496   12.710492   -1.183255
  18 S    16.0000    0    32.060   -3.167796  -14.799210   -1.713316
  19 S    16.0000    0    32.060   -1.344958  -14.587066    3.701102
  20 S    16.0000    0    32.060    3.785573   14.248417   -4.177053
  21 S    16.0000    0    32.060    5.186209   14.296784    1.366690
  22 C     6.0000    0    12.011    8.450413   14.263307    0.101623
  23 C     6.0000    0    12.011    7.259373   14.232203   -4.613281
  24 C     6.0000    0    12.011    8.707445   15.543467   -2.480084
  25 H     1.0000    0     1.008    9.081550   12.298905    0.016356
  26 H     1.0000    0     1.008    9.597177   15.249131    1.508455
  27 H     1.0000    0     1.008   10.721663   15.572802   -2.989779
  28 H     1.0000    0     1.008    8.081159   17.510411   -2.334430
  29 H     1.0000    0     1.008    7.592232   15.202302   -6.406605
  30 H     1.0000    0     1.008    7.868818   12.269802   -4.817272
  31 C     6.0000    0    12.011   -4.559680  -15.799195    4.385379
  32 C     6.0000    0    12.011   -6.115360  -15.966484   -0.219870
  33 C     6.0000    0    12.011   -5.676670  -17.403909    2.251453
  34 H     1.0000    0     1.008   -7.364266  -14.348188    0.082846
  35 H     1.0000    0     1.008   -6.990516  -17.206602   -1.623334
  36 H     1.0000    0     1.008   -4.439361  -19.024830    1.889768
  37 H     1.0000    0     1.008   -7.505924  -18.154131    2.896262
  38 H     1.0000    0     1.008   -4.367744  -16.927845    6.104622
  39 H     1.0000    0     1.008   -5.775758  -14.182256    4.806712

--------------------------------
INTERNAL COORDINATES (ANGSTROEM)
--------------------------------
 V      0   0   0     0.000000000000     0.00000000     0.00000000
 S      1   0   0     2.475153223749     0.00000000     0.00000000
 S      1   2   0     2.477661062623    85.90135166     0.00000000
 S      1   2   3     2.480364601128    85.93600413   149.45173857
 S      1   2   3     2.466610711879   144.50889647    76.10750511
 O      1   2   3     1.593098842861   108.01935059   255.87412599
 C      3   1   2     1.759052310796    98.42553287   168.20318841
 C      7   3   1     1.346889643885   124.73818603   339.69413832
 C      2   1   3     1.758637512641   101.57922725   205.72286513
 C      9   2   1     1.345635213052   125.28318600     4.50504633
 S      7   3   1     1.796874833146   118.94090731   162.34279545
 S      8   7   3     1.793885829400   116.57934997   183.25356668
 S     10   9   2     1.796192827427   116.48282183   178.20301785
 S      9   2   1     1.797170534259   118.32259366   182.82437646
 C     12   8   7     1.767741018636    97.15485869     0.05421877
 C     13  10   9     1.767209883430    97.10069509   358.23072025
 C     15  12   8     1.368325233399   123.44155650   180.04458147
 C     16  13  10     1.367742304562   123.53190267   182.80181513
 S     17  15  12     1.783362111313   122.09992934   176.90411572
 S     17  15  12     1.782063698876   121.75476296   359.47194815
 S     18  16  13     1.782289414887   121.95727844   179.26439469
 S     18  16  13     1.782497749518   121.84127967     1.37587952
 C     22  18  16     1.852614804932    98.29478396   115.86871517
 C     21  18  16     1.852713134984    98.36530123   243.98325034
 C     24  21  18     1.530672716881   113.74881016   302.64765152
 H     23  22  18     1.092783521963   107.99754957   294.17245078
 H     23  22  18     1.092990326014   105.48461674   178.64683365
 H     25  24  21     1.099584132024   108.10607355   184.65915106
 H     25  24  21     1.095066771057   109.34662510   301.16014219
 H     24  21  18     1.093221556607   105.41731458   181.70440610
 H     24  21  18     1.092729085874   108.03170383    66.16237820
 C     20  17  15     1.853777159376    98.52610814   115.63251701
 C     19  17  15     1.854465257367    98.27156846   244.50691163
 C     33  19  17     1.530601778860   113.70824732   302.24748887
 H     33  19  17     1.093527319485   108.05398898    65.73318160
 H     33  19  17     1.093938894369   105.46000986   181.33652378
 H     34  33  19     1.095937606330   109.29023740   301.30725013
 H     34  33  19     1.100482888507   108.10693717   184.82887176
 H     32  20  17     1.093040418715   105.44892222   178.20184481
 H     32  20  17     1.093600507840   108.00469982   293.71629446

---------------------------
INTERNAL COORDINATES (A.U.)
---------------------------
 V      0   0   0     0.000000000000     0.00000000     0.00000000
 S      1   0   0     4.677361732377     0.00000000     0.00000000
 S      1   2   0     4.682100861037    85.90135166     0.00000000
 S      1   2   3     4.687209808405    85.93600413   149.45173857
 S      1   2   3     4.661218724449   144.50889647    76.10750511
 O      1   2   3     3.010520517275   108.01935059   255.87412599
 C      3   1   2     3.324127122646    98.42553287   168.20318841
 C      7   3   1     2.545252559558   124.73818603   339.69413832
 C      2   1   3     3.323343267732   101.57922725   205.72286513
 C      9   2   1     2.542882028829   125.28318600     4.50504633
 S      7   3   1     3.395601331582   118.94090731   162.34279545
 S      8   7   3     3.389952933088   116.57934997   183.25356668
 S     10   9   2     3.394312527550   116.48282183   178.20301785
 S      9   2   1     3.396160125702   118.32259366   182.82437646
 C     12   8   7     3.340546400921    97.15485869     0.05421877
 C     13  10   9     3.339542700842    97.10069509   358.23072025
 C     15  12   8     2.585759953258   123.44155650   180.04458147
 C     16  13  10     2.584658377400   123.53190267   182.80181513
 S     17  15  12     3.370065987994   122.09992934   176.90411572
 S     17  15  12     3.367612344079   121.75476296   359.47194815
 S     18  16  13     3.368038885523   121.95727844   179.26439469
 S     18  16  13     3.368432580920   121.84127967     1.37587952
 C     22  18  16     3.500934612970    98.29478396   115.86871517
 C     21  18  16     3.501120429839    98.36530123   243.98325034
 C     24  21  18     2.892552235571   113.74881016   302.64765152
 H     23  22  18     2.065061580172   107.99754957   294.17245078
 H     23  22  18     2.065452383192   105.48461674   178.64683365
 H     25  24  21     2.077912870730   108.10607355   184.65915106
 H     25  24  21     2.069376295655   109.34662510   301.16014219
 H     24  21  18     2.065889345686   105.41731458   181.70440610
 H     24  21  18     2.064958710871   108.03170383    66.16237820
 C     20  17  15     3.503131144540    98.52610814   115.63251701
 C     19  17  15     3.504431461296    98.27156846   244.50691163
 C     33  19  17     2.892418182138   113.70824732   302.24748887
 H     33  19  17     2.066467153787   108.05398898    65.73318160
 H     33  19  17     2.067244917602   105.46000986   181.33652378
 H     34  33  19     2.071021935829   109.29023740   301.30725013
 H     34  33  19     2.079611274344   108.10693717   184.82887176
 H     32  20  17     2.065547044678   105.44892222   178.20184481
 H     32  20  17     2.066605459736   108.00469982   293.71629446

---------------------
BASIS SET INFORMATION
---------------------
There are 5 groups of distinct atoms

 Group   1 Type V   : 17s11p5d1f contracted to 17s7p3d1f pattern {11111111111111111/3311111/311/1}
 Group   2 Type S   : 14s9p1d contracted to 5s4p1d pattern {73211/6111/1}
 Group   3 Type O   : 11s6p1d contracted to 5s3p1d pattern {62111/411/1}
 Group   4 Type C   : 11s6p1d contracted to 5s3p1d pattern {62111/411/1}
 Group   5 Type H   : 5s1p contracted to 3s1p pattern {311/1}

Atom   0V    basis set group =>   1
Atom   1S    basis set group =>   2
Atom   2S    basis set group =>   2
Atom   3S    basis set group =>   2
Atom   4S    basis set group =>   2
Atom   5O    basis set group =>   3
Atom   6C    basis set group =>   4
Atom   7C    basis set group =>   4
Atom   8C    basis set group =>   4
Atom   9C    basis set group =>   4
Atom  10S    basis set group =>   2
Atom  11S    basis set group =>   2
Atom  12S    basis set group =>   2
Atom  13S    basis set group =>   2
Atom  14C    basis set group =>   4
Atom  15C    basis set group =>   4
Atom  16C    basis set group =>   4
Atom  17C    basis set group =>   4
Atom  18S    basis set group =>   2
Atom  19S    basis set group =>   2
Atom  20S    basis set group =>   2
Atom  21S    basis set group =>   2
Atom  22C    basis set group =>   4
Atom  23C    basis set group =>   4
Atom  24C    basis set group =>   4
Atom  25H    basis set group =>   5
Atom  26H    basis set group =>   5
Atom  27H    basis set group =>   5
Atom  28H    basis set group =>   5
Atom  29H    basis set group =>   5
Atom  30H    basis set group =>   5
Atom  31C    basis set group =>   4
Atom  32C    basis set group =>   4
Atom  33C    basis set group =>   4
Atom  34H    basis set group =>   5
Atom  35H    basis set group =>   5
Atom  36H    basis set group =>   5
Atom  37H    basis set group =>   5
Atom  38H    basis set group =>   5
Atom  39H    basis set group =>   5

-------------------------
BASIS SET IN INPUT FORMAT
-------------------------

 # Basis set for element : H 
 NewGTO H 
 S 3 
   1      34.0613410000      0.0254393168
   2       5.1235746000      0.1900859340
   3       1.1646626000      0.8524411390
 S 1 
   1       0.3272304100      1.0000000000
 S 1 
   1       0.1030724100      1.0000000000
 P 1 
   1       0.8000000000      1.0000000000
  end;

 # Basis set for element : C 
 NewGTO C 
 S 6 
   1   13575.3496820000      0.0006064601
   2    2035.2333680000      0.0046978985
   3     463.2256235900      0.0243324735
   4     131.2001959800      0.0973999560
   5      42.8530158900      0.3019558443
   6      15.5841857700      0.6623361013
 S 2 
   1       6.2067138500      0.6559530795
   2       2.5764896500      0.3758563390
 S 1 
   1       0.5769633900      1.0000000000
 S 1 
   1       0.2297283100      1.0000000000
 S 1 
   1       0.0951644400      1.0000000000
 P 4 
   1      34.6972322400      0.0113272290
   2       7.9582622800      0.0761696612
   3       2.3780826900      0.3019225154
   4       0.8143320800      0.7278502776
 P 1 
   1       0.2888754700      1.0000000000
 P 1 
   1       0.1005682400      1.0000000000
 D 1 
   1       0.8000000000      1.0000000000
  end;

 # Basis set for element : O 
 NewGTO O 
 S 6 
   1   27032.3826310000      0.0005722654
   2    4052.3871392000      0.0044353333
   3     922.3272271000      0.0230201034
   4     261.2407098900      0.0928224938
   5      85.3546413500      0.2937849971
   6      31.0350352400      0.6740160462
 S 2 
   1      12.2608607300      0.6383993750
   2       4.9987076000      0.3953458663
 S 1 
   1       1.1703108200      1.0000000000
 S 1 
   1       0.4647474100      1.0000000000
 S 1 
   1       0.1850453600      1.0000000000
 P 4 
   1      63.2749548000      0.0120183316
   2      14.6270493800      0.0830054304
   3       4.4501223500      0.3199174388
   4       1.5275799600      0.7071554258
 P 1 
   1       0.5293511800      1.0000000000
 P 1 
   1       0.1747842100      1.0000000000
 D 1 
   1       1.2000000000      1.0000000000
  end;

 # Basis set for element : S 
 NewGTO S 
 S 7 
   1   60700.9281040000      0.0005238013
   2    9102.6106854000      0.0040506304
   3    2071.4166009000      0.0208270003
   4     586.0247682100      0.0814968475
   5     190.5539502100      0.2374911358
   6      67.6303842600      0.4472617145
   7      25.1273069100      0.3489191913
 S 3 
   1     112.5746301000      0.1004556993
   2      34.7955542200      0.4339117282
   3       6.5115556200     -1.2084330582
 S 2 
   1       3.2399032300      0.6749812922
   2       1.5477160900      0.3470879597
 S 1 
   1       0.4054103000      1.0000000000
 S 1 
   1       0.1455065100      1.0000000000
 P 6 
   1     564.3671602700      0.0025564845
   2     133.4262437900      0.0202874255
   3      42.4682711900      0.0927670112
   4      15.6165275800      0.2650208365
   5       6.1093988500      0.4486298663
   6       2.4404160200      0.3596369916
 P 1 
   1       0.8388220100      1.0000000000
 P 1 
   1       0.3128874700      1.0000000000
 P 1 
   1       0.1077010900      1.0000000000
 D 1 
   1       0.5500000000      1.0000000000
  end;

 # Basis set for element : V 
 NewGTO V 
 S 1 
   1  4239814.9912500000      1.0000000000
 S 1 
   1  1695925.9965000001      1.0000000000
 S 1 
   1  678370.3986000001      1.0000000000
 S 1 
   1  271348.1594400000      1.0000000000
 S 1 
   1   40672.0050780000      1.0000000000
 S 1 
   1    9257.0761385000      1.0000000000
 S 1 
   1    2622.7328773000      1.0000000000
 S 1 
   1     858.5948018500      1.0000000000
 S 1 
   1     314.1941865000      1.0000000000
 S 1 
   1     124.4786212700      1.0000000000
 S 1 
   1      50.4693993090      1.0000000000
 S 1 
   1      12.5138469110      1.0000000000
 S 1 
   1       5.3447758082      1.0000000000
 S 1 
   1       1.5755631295      1.0000000000
 S 1 
   1       0.6306903307      1.0000000000
 S 1 
   1       0.0879544416      1.0000000000
 S 1 
   1       0.0342969197      1.0000000000
 P 3 
   1    1450.0319327000     -0.0222847647
   2     343.7504988400     -0.1817959329
   3     110.8252170800     -0.8607412073
 P 3 
   1      41.8224645460     -0.2522537814
   2      17.0880737100     -0.4620379520
   3       7.2613218939     -0.3990010670
 P 1 
   1       2.9458145262      1.0000000000
 P 1 
   1       1.1650209680      1.0000000000
 P 1 
   1       0.4339937839      1.0000000000
 D 3 
   1      27.3603358640      0.0575501019
   2       7.4542765527      0.3023798347
   3       2.4632270217      0.7724212088
 D 1 
   1       0.8249954244      1.0000000000
 D 1 
   1       0.2526297057      1.0000000000
 P 1 
   1       0.1112480000      1.0000000000
 P 1 
   1       0.0363780000      1.0000000000
 F 1 
   1       1.8000000000      1.0000000000
  end;

---------------------------------
AUXILIARY/J BASIS SET INFORMATION
---------------------------------
There are 5 groups of distinct atoms

 Group   1 Type V   : 19s5p5d3f3g contracted to 8s5p5d2f3g pattern {121111111/11111/11111/21/111}
 Group   2 Type S   : 14s5p5d2f1g contracted to 8s4p3d1f1g pattern {71111111/2111/311/2/1}
 Group   3 Type O   : 12s5p4d2f1g contracted to 6s4p3d1f1g pattern {711111/2111/211/2/1}
 Group   4 Type C   : 12s5p4d2f1g contracted to 6s4p3d1f1g pattern {711111/2111/211/2/1}
 Group   5 Type H   : 5s2p1d contracted to 3s1p1d pattern {311/2/1}

Atom   0V    basis set group =>   1
Atom   1S    basis set group =>   2
Atom   2S    basis set group =>   2
Atom   3S    basis set group =>   2
Atom   4S    basis set group =>   2
Atom   5O    basis set group =>   3
Atom   6C    basis set group =>   4
Atom   7C    basis set group =>   4
Atom   8C    basis set group =>   4
Atom   9C    basis set group =>   4
Atom  10S    basis set group =>   2
Atom  11S    basis set group =>   2
Atom  12S    basis set group =>   2
Atom  13S    basis set group =>   2
Atom  14C    basis set group =>   4
Atom  15C    basis set group =>   4
Atom  16C    basis set group =>   4
Atom  17C    basis set group =>   4
Atom  18S    basis set group =>   2
Atom  19S    basis set group =>   2
Atom  20S    basis set group =>   2
Atom  21S    basis set group =>   2
Atom  22C    basis set group =>   4
Atom  23C    basis set group =>   4
Atom  24C    basis set group =>   4
Atom  25H    basis set group =>   5
Atom  26H    basis set group =>   5
Atom  27H    basis set group =>   5
Atom  28H    basis set group =>   5
Atom  29H    basis set group =>   5
Atom  30H    basis set group =>   5
Atom  31C    basis set group =>   4
Atom  32C    basis set group =>   4
Atom  33C    basis set group =>   4
Atom  34H    basis set group =>   5
Atom  35H    basis set group =>   5
Atom  36H    basis set group =>   5
Atom  37H    basis set group =>   5
Atom  38H    basis set group =>   5
Atom  39H    basis set group =>   5

-------------------------------------
AUXILIARY/J BASIS SET IN INPUT FORMAT
-------------------------------------

 # Auxiliary/J basis set for element : H 
 NewAuxJGTO H 
 S 3 
   1      15.6752927000      0.1007184237
   2       3.6063578000      0.3404257499
   3       1.2080016000      0.6491996172
 S 1 
   1       0.4726794000      1.0000000000
 S 1 
   1       0.2018100000      1.0000000000
 P 2 
   1       2.0281365000      0.5596620919
   2       0.5358730000      0.5596620919
 D 1 
   1       2.2165124000      1.0000000000
  end;

 # Auxiliary/J basis set for element : C 
 NewAuxJGTO C 
 S 7 
   1    1861.0916331000      0.0134602335
   2     642.9939764000      0.0299160374
   3     235.1105725000      0.1008649584
   4      90.7028894000      0.2370970548
   5      36.7794552000      0.3924037254
   6      15.6046273000      0.3195862154
   7       6.8907294000      0.0530104441
 S 1 
   1       3.1478850000     -1.0000000000
 S 1 
   1       1.4777287000      1.0000000000
 S 1 
   1       0.7076466000      1.0000000000
 S 1 
   1       0.3430122000      1.0000000000
 S 1 
   1       0.1669453000      1.0000000000
 P 2 
   1      13.5472892000     -0.6769313712
   2       5.4669419000     -0.3779500978
 P 1 
   1       2.1751721000      1.0000000000
 P 1 
   1       0.8582194000      1.0000000000
 P 1 
   1       0.3376720000      1.0000000000
 D 2 
   1       5.9287253000     -0.3533329857
   2       1.9809209000     -0.7456525731
 D 1 
   1       0.8055417000     -1.0000000000
 D 1 
   1       0.3531244000     -1.0000000000
 F 2 
   1       1.6755626000      0.6311076882
   2       0.5997536000      0.4968166032
 G 1 
   1       1.0024600000     -1.0000000000
  end;

 # Auxiliary/J basis set for element : O 
 NewAuxJGTO O 
 S 7 
   1    2876.8216605000      0.0168151159
   2    1004.7443032000      0.0340137548
   3     369.7579954000      0.1194951309
   4     142.9442404000      0.2664627624
   5      57.8366425000      0.4202764046
   6      24.3864983000      0.2765077335
   7      10.6622662000      0.0057008815
 S 1 
   1       4.8070437000     -1.0000000000
 S 1 
   1       2.2210770000      1.0000000000
 S 1 
   1       1.0447795000      1.0000000000
 S 1 
   1       0.4968425000      1.0000000000
 S 1 
   1       0.2371384000      1.0000000000
 P 2 
   1      64.2613382000     -0.2731534179
   2      16.3006076000     -0.8168011598
 P 1 
   1       4.3550542000      1.0000000000
 P 1 
   1       1.2019554000      1.0000000000
 P 1 
   1       0.3354196000      1.0000000000
 D 2 
   1       9.2146611000     -0.4661230638
   2       2.8435251000     -0.6600908911
 D 1 
   1       0.9955759000     -1.0000000000
 D 1 
   1       0.3649441000     -1.0000000000
 F 2 
   1       2.6420115000      0.5931563945
   2       0.7345613000      0.5931563945
 G 1 
   1       1.3931000000     -1.0000000000
  end;

 # Auxiliary/J basis set for element : S 
 NewAuxJGTO S 
 S 7 
   1    7399.0303145000      0.0295137551
   2    2710.1675859000      0.0559686311
   3    1034.3279062000      0.1764696370
   4     410.4645411000      0.3577969368
   5     168.9762502000      0.4299293578
   6      71.9687889000      0.1259148089
   7      31.6172683000     -0.0646025788
 S 1 
   1      14.2796836000      1.0000000000
 S 1 
   1       6.6060948000      1.0000000000
 S 1 
   1       3.1181477000      1.0000000000
 S 1 
   1       1.4954039000     -1.0000000000
 S 1 
   1       0.7254779000      1.0000000000
 S 1 
   1       0.3544216000      1.0000000000
 S 1 
   1       0.1735525000      1.0000000000
 P 2 
   1      12.6998799000      1.4059102813
   2       4.4295784000     -1.2124994202
 P 1 
   1       1.5232889000      1.0000000000
 P 1 
   1       0.5194667000     -1.0000000000
 P 1 
   1       0.1766547000     -1.0000000000
 D 3 
   1      16.8546461000      1.0295742104
   2       5.0810461000     -0.7461553923
   3       1.5102323000      0.8357028005
 D 1 
   1       0.4451331000      1.0000000000
 D 1 
   1       0.1308362000      1.0000000000
 F 2 
   1       1.0809860000      0.5572698934
   2       0.4161474000      0.5572698934
 G 1 
   1       0.6707100000     -1.0000000000
  end;

 # Auxiliary/J basis set for element : V 
 NewAuxJGTO V 
 S 12 
   1   11942.0842430000      0.0459866720
   2    2430.7110193000      0.1744615821
   3     841.0764301000      0.2900402792
   4     494.7508273000      0.1411212903
   5     291.0298903000      0.2660697186
   6     171.1940483000      0.0446365706
   7      59.2366916000     -0.0408204801
   8      34.8451117000      0.1394665381
   9      20.4971240000      0.2164746715
  10      12.0571314000      0.0864266611
  11       7.0924300000     -0.0568501658
  12       4.1720176000     -0.0126212852
 S 1 
   1       2.4541279000      1.0000000000
 S 1 
   1       1.4436046000      1.0000000000
 S 1 
   1       0.8491792000      1.0000000000
 S 1 
   1       0.2938336000      1.0000000000
 S 1 
   1       0.1728433000      1.0000000000
 S 1 
   1       0.1016725000      1.0000000000
 S 1 
   1       0.0598074000      1.0000000000
 P 1 
   1      16.7130979000     -1.0000000000
 P 1 
   1       4.7454037000     -1.0000000000
 P 1 
   1       1.3889998000      1.0000000000
 P 1 
   1       0.4142440000     -1.0000000000
 P 1 
   1       0.1243234000      1.0000000000
 D 1 
   1       7.7143225000      1.0000000000
 D 1 
   1       3.1170731000      1.0000000000
 D 1 
   1       1.2767950000     -1.0000000000
 D 1 
   1       0.5273386000      1.0000000000
 D 1 
   1       0.2184050000      1.0000000000
 F 2 
   1       3.1309344000     -1.0825667766
   2       1.0419780000      0.1809223232
 F 1 
   1       0.3559044000      1.0000000000
 G 1 
   1       8.7130110000      1.0000000000
 G 1 
   1       2.7493872000      1.0000000000
 G 1 
   1       0.8775089000      1.0000000000
  end;



           ************************************************************
           *        Program running with 6 parallel MPI-processes     *
           *              working on a common directory               *
           ************************************************************
------------------------------------------------------------------------------
                           ORCA GTO INTEGRAL CALCULATION
                           -- RI-GTO INTEGRALS CHOSEN --
------------------------------------------------------------------------------
------------------------------------------------------------------------------
                   ___                                                        
                  /   \      - P O W E R E D   B Y -                         
                 /     \                                                     
                 |  |  |   _    _      __       _____    __    __             
                 |  |  |  | |  | |    /  \     |  _  \  |  |  /  |          
                  \  \/   | |  | |   /    \    | | | |  |  | /  /          
                 / \  \   | |__| |  /  /\  \   | |_| |  |  |/  /          
                |  |  |   |  __  | /  /__\  \  |    /   |      \           
                |  |  |   | |  | | |   __   |  |    \   |  |\   \          
                \     /   | |  | | |  |  |  |  | |\  \  |  | \   \       
                 \___/    |_|  |_| |__|  |__|  |_| \__\ |__|  \__/        
                                                                              
                      - O R C A' S   B I G   F R I E N D -                    
                                      &                                       
                       - I N T E G R A L  F E E D E R -                       
                                                                              
 v1 FN, 2020, v2 2021                                                         
------------------------------------------------------------------------------


Reading SHARK input file input_1.SHARKINP.tmp ... ok
----------------------
SHARK INTEGRAL PACKAGE
----------------------

Number of atoms                             ...     40
Number of basis functions                   ...    681
Number of shells                            ...    331
Maximum angular momentum                    ...      3
Integral batch strategy                     ... SHARK/LIBINT Hybrid
RI-J (if used) integral strategy            ... SPLIT-RIJ (Revised 2003 algorithm where possible)
Printlevel                                  ...      1
Contraction scheme used                     ... SEGMENTED contraction
Coulomb Range Separation                    ... NOT USED
Exchange Range Separation                   ... NOT USED
Finite Nucleus Model                        ... NOT USED
Auxiliary Coulomb fitting basis             ... AVAILABLE
   # of basis functions in Aux-J            ...   1568
   # of shells in Aux-J                     ...    512
   Maximum angular momentum in Aux-J        ...      4
Auxiliary J/K fitting basis                 ... NOT available
Auxiliary Correlation fitting basis         ... NOT available
Auxiliary 'external' fitting basis          ... NOT available
Integral threshold                          ...     1.000000e-10
Primitive cut-off                           ...     1.000000e-11
Primitive pair pre-selection threshold      ...     1.000000e-11

Calculating pre-screening integrals         ... done (  0.1 sec) Dimension = 331
Organizing shell pair data                  ... done (  0.1 sec)
Shell pair information
Total number of shell pairs                 ...     54946
Shell pairs after pre-screening             ...     22749
Total number of primitive shell pairs       ...    221635
Primitive shell pairs kept                  ...     55513
          la=0 lb=0:   6423 shell pairs
          la=1 lb=0:   9128 shell pairs
          la=1 lb=1:   3211 shell pairs
          la=2 lb=0:   2129 shell pairs
          la=2 lb=1:   1536 shell pairs
          la=2 lb=2:    196 shell pairs
          la=3 lb=0:     56 shell pairs
          la=3 lb=1:     57 shell pairs
          la=3 lb=2:     12 shell pairs
          la=3 lb=3:      1 shell pairs

Calculating one electron integrals          ... done (  0.0 sec)
Calculating RI/J V-Matrix + Cholesky decomp.... done (  0.1 sec)
Calculating Nuclear repulsion               ... done (  0.0 sec) ENN=   5066.627917520714 Eh

SHARK setup successfully completed in   0.7 seconds

Maximum memory used throughout the entire GTOINT-calculation: 41.9 MB


           ************************************************************
           *        Program running with 6 parallel MPI-processes     *
           *              working on a common directory               *
           ************************************************************
-------------------------------------------------------------------------------
                                 ORCA SCF
-------------------------------------------------------------------------------

------------
SCF SETTINGS
------------
Hamiltonian:
 Density Functional     Method          .... DFT(GTOs)
 Exchange Functional    Exchange        .... B88
   X-Alpha parameter    XAlpha          ....  0.666667
   Becke's b parameter  XBeta           ....  0.004200
 Correlation Functional Correlation     .... LYP
 LDA part of GGA corr.  LDAOpt          .... VWN-5
 Gradients option       PostSCFGGA      .... off
 Hybrid DFT is turned on
   Fraction HF Exchange ScalHFX         ....  0.200000
   Scaling of DF-GGA-X  ScalDFX         ....  0.720000
   Scaling of DF-GGA-C  ScalDFC         ....  0.810000
   Scaling of DF-LDA-C  ScalLDAC        ....  1.000000
   Perturbative correction              ....  0.000000
   Density functional embedding theory  .... OFF
   NL short-range parameter             ....  4.800000
 RI-approximation to the Coulomb term is turned on
   Number of AuxJ basis functions       .... 1568
   RIJ-COSX (HFX calculated with COS-X)).... on


General Settings:
 Integral files         IntName         .... input_1
 Hartree-Fock type      HFTyp           .... UHF
 Total Charge           Charge          ....   -2
 Multiplicity           Mult            ....    2
 Number of Electrons    NEL             ....  321
 Basis Dimension        Dim             ....  681
 Nuclear Repulsion      ENuc            ....   5066.6279175207 Eh

Convergence Acceleration:
 DIIS                   CNVDIIS         .... on
   Start iteration      DIISMaxIt       ....    12
   Startup error        DIISStart       ....  0.200000
   # of expansion vecs  DIISMaxEq       ....     5
   Bias factor          DIISBfac        ....   1.050
   Max. coefficient     DIISMaxC        ....  10.000
 Trust-Rad. Augm. Hess. CNVTRAH         .... auto
   Auto Start mean grad. ratio tolernc. ....  1.125000
   Auto Start start iteration           ....    20
   Auto Start num. interpolation iter.  ....    10
   Max. Number of Micro iterations      ....    16
   Max. Number of Macro iterations      .... Maxiter - #DIIS iter
   Number of Davidson start vectors     ....     2
   Converg. threshold I  (grad. norm)   ....   5.000e-05
   Converg. threshold II (energy diff.) ....   1.000e-06
   Grad. Scal. Fac. for Micro threshold ....   0.100
   Minimum threshold for Micro iter.    ....   0.010
   NR start threshold (gradient norm)   ....   0.001
   Initial trust radius                 ....   0.400
   Minimum AH scaling param. (alpha)    ....   1.000
   Maximum AH scaling param. (alpha)    .... 1000.000
   Orbital update algorithm             .... Taylor
   White noise on init. David. guess    .... on
   Maximum white noise                  ....   0.010
   Quad. conv. algorithm                .... NR
 SOSCF                  CNVSOSCF        .... off
 Level Shifting         CNVShift        .... on
   Level shift para.    LevelShift      ....    0.2500
   Turn off err/grad.   ShiftErr        ....    0.0010
 Zerner damping         CNVZerner       .... off
 Static damping         CNVDamp         .... on
   Fraction old density DampFac         ....    0.7000
   Max. Damping (<1)    DampMax         ....    0.9800
   Min. Damping (>=0)   DampMin         ....    0.0000
   Turn off err/grad.   DampErr         ....    0.1000
 Fernandez-Rico         CNVRico         .... off

SCF Procedure:
 Maximum # iterations   MaxIter         ....   125
 SCF integral mode      SCFMode         .... Direct
   Integral package                     .... SHARK and LIBINT hybrid scheme
 Reset frequency        DirectResetFreq ....    20
 Integral Threshold     Thresh          ....  1.000e-10 Eh
 Primitive CutOff       TCut            ....  1.000e-11 Eh

Convergence Tolerance:
 Convergence Check Mode ConvCheckMode   .... Total+1el-Energy
 Convergence forced     ConvForced      .... 0
 Energy Change          TolE            ....  1.000e-06 Eh
 1-El. energy change                    ....  1.000e-03 Eh
 DIIS Error             TolErr          ....  1.000e-06


Diagonalization of the overlap matrix:
Smallest eigenvalue                        ... 8.647e-05
Time for diagonalization                   ...    0.201 sec
Threshold for overlap eigenvalues          ... 1.000e-08
Number of eigenvalues below threshold      ... 0
Time for construction of square roots      ...    0.156 sec
Total time needed                          ...    0.362 sec

Time for model grid setup =    0.388 sec

------------------------------
INITIAL GUESS: MODEL POTENTIAL
------------------------------
Loading Hartree-Fock densities                     ... done
Calculating cut-offs                               ... done
Initializing the effective Hamiltonian             ... done
Setting up the integral package (SHARK)            ... done
Starting the Coulomb interaction                   ... done (   0.4 sec)
Reading the grid                                   ... done
Mapping shells                                     ... done
Starting the XC term evaluation                    ... done (   0.2 sec)
  promolecular density results
     # of electrons  =    318.990314082
     EX              =   -428.258135220
     EC              =    -12.536658299
     EX+EC           =   -440.794793519
Transforming the Hamiltonian                       ... done (   0.2 sec)
Diagonalizing the Hamiltonian                      ... done (   0.2 sec)
Back transforming the eigenvectors                 ... done (   0.1 sec)
Now organizing SCF variables                       ... done
                      ------------------
                      INITIAL GUESS DONE (   1.5 sec)
                      ------------------
-------------------
DFT GRID GENERATION
-------------------

General Integration Accuracy     IntAcc      ... 4.388
Radial Grid Type                 RadialGrid  ... OptM3 with GC (2021)
Angular Grid (max. ang.)         AngularGrid ... 4 (Lebedev-302)
Angular grid pruning method      GridPruning ... 4 (adaptive)
Weight generation scheme         WeightScheme... Becke
Basis function cutoff            BFCut       ... 1.0000e-10
Integration weight cutoff        WCut        ... 1.0000e-14
Angular grids for H and He will be reduced by one unit
Partially contracted basis set               ... off
Rotationally invariant grid construction     ... off

Total number of grid points                  ...   237253
Total number of batches                      ...     3729
Average number of points per batch           ...       63
Average number of grid points per atom       ...     5931
Time for grid setup =    1.913 sec

--------------------
COSX GRID GENERATION
--------------------

GRIDX 1
-------
General Integration Accuracy     IntAcc      ... 3.816
Radial Grid Type                 RadialGrid  ... OptM3 with GC (2021)
Angular Grid (max. ang.)         AngularGrid ... 1 (Lebedev-50)
Angular grid pruning method      GridPruning ... 4 (adaptive)
Weight generation scheme         WeightScheme... Becke
Basis function cutoff            BFCut       ... 1.0000e-10
Integration weight cutoff        WCut        ... 1.0000e-14
Angular grids for H and He will be reduced by one unit
Partially contracted basis set               ... on
Rotationally invariant grid construction     ... off

Total number of grid points                  ...    29198
Total number of batches                      ...      479
Average number of points per batch           ...       60
Average number of grid points per atom       ...      730
UseSFitting                                  ... on

GRIDX 2
-------
General Integration Accuracy     IntAcc      ... 4.020
Radial Grid Type                 RadialGrid  ... OptM3 with GC (2021)
Angular Grid (max. ang.)         AngularGrid ... 2 (Lebedev-110)
Angular grid pruning method      GridPruning ... 4 (adaptive)
Weight generation scheme         WeightScheme... Becke
Basis function cutoff            BFCut       ... 1.0000e-10
Integration weight cutoff        WCut        ... 1.0000e-14
Angular grids for H and He will be reduced by one unit
Partially contracted basis set               ... on
Rotationally invariant grid construction     ... off

Total number of grid points                  ...    64094
Total number of batches                      ...     1021
Average number of points per batch           ...       62
Average number of grid points per atom       ...     1602
UseSFitting                                  ... on

GRIDX 3
-------
General Integration Accuracy     IntAcc      ... 4.338
Radial Grid Type                 RadialGrid  ... OptM3 with GC (2021)
Angular Grid (max. ang.)         AngularGrid ... 3 (Lebedev-194)
Angular grid pruning method      GridPruning ... 4 (adaptive)
Weight generation scheme         WeightScheme... Becke
Basis function cutoff            BFCut       ... 1.0000e-10
Integration weight cutoff        WCut        ... 1.0000e-14
Angular grids for H and He will be reduced by one unit
Partially contracted basis set               ... on
Rotationally invariant grid construction     ... off

Total number of grid points                  ...   147214
Total number of batches                      ...     2325
Average number of points per batch           ...       63
Average number of grid points per atom       ...     3680
UseSFitting                                  ... on

Time for X-Grid setup             =    2.147 sec

--------------
SCF ITERATIONS
--------------
ITER       Energy         Delta-E        Max-DP      RMS-DP      [F,P]     Damp
               ***  Starting incremental Fock matrix formation  ***
  0  -6336.8839559754   0.000000000000 0.05196717  0.00067783  0.2321769 0.7000
  1  -6337.2289262908  -0.344970315336 0.12154193  0.00064678  0.1558660 0.7000
                               ***Turning on DIIS***
  2  -6337.3901025329  -0.161176242125 0.05392525  0.00033383  0.1091337 0.7000
  3  -6337.4796874205  -0.089584887550 0.06853956  0.00059390  0.0772410 0.0000
  4  -6337.6980741317  -0.218386711214 0.07152364  0.00032794  0.0151139 0.0000
  5  -6337.7040678840  -0.005993752292 0.01608744  0.00009101  0.0125966 0.0000
  6  -6337.7057333180  -0.001665434021 0.00368388  0.00004393  0.0041908 0.0000
  7  -6337.7062166579  -0.000483339910 0.00191536  0.00002617  0.0017122 0.0000
  8  -6337.7064546365  -0.000237978601 0.00359223  0.00002339  0.0016912 0.0000
  9  -6337.7066072400  -0.000152603527 0.00185811  0.00001806  0.0011684 0.0000
 10  -6337.7067074975  -0.000100257477 0.00369461  0.00004319  0.0007067 0.0000
               *** Restarting incremental Fock matrix formation ***
                                   *** Resetting DIIS ***
 11  -6337.7068322245  -0.000124726997 0.00125101  0.00001205  0.0009065 0.0000
 12  -6337.7067848310   0.000047393542 0.00046976  0.00000324  0.0029769 0.0000
 13  -6337.7068353942  -0.000050563245 0.00037274  0.00000308  0.0010745 0.0000
 14  -6337.7068428484  -0.000007454216 0.00032430  0.00000345  0.0004117 0.0000
 15  -6337.7068447529  -0.000001904473 0.00021370  0.00000180  0.0001851 0.0000
 16  -6337.7068452212  -0.000000468314 0.00013577  0.00000112  0.0000938 0.0000
 17  -6337.7068456383  -0.000000417098 0.00013276  0.00000109  0.0000759 0.0000
 18  -6337.7068456892  -0.000000050863 0.00015931  0.00000082  0.0000777 0.0000
 19  -6337.7068458160  -0.000000126842 0.00012620  0.00000054  0.0000234 0.0000
                 **** Energy Check signals convergence ****

               *****************************************************
               *                     SUCCESS                       *
               *           SCF CONVERGED AFTER  20 CYCLES          *
               *****************************************************

Old exchange energy                            =    -85.927731415 Eh
New exchange energy                            =    -85.927706677 Eh
Exchange energy change after final integration =      0.000024739 Eh
Total energy after final integration           =  -6337.706821146 Eh
Final COS-X integration done in                =    28.322 sec

----------------
TOTAL SCF ENERGY
----------------

Total Energy       :        -6337.70682115 Eh         -172457.77019 eV

Components:
Nuclear Repulsion  :         5066.62791752 Eh          137869.95481 eV
Electronic Energy  :       -11404.33473867 Eh         -310327.72500 eV
One Electron Energy:       -18903.67035566 Eh         -514395.02172 eV
Two Electron Energy:         7499.33561699 Eh          204067.29672 eV
Max COSX asymmetry :            0.00000094 Eh               0.00003 eV

Virial components:
Potential Energy   :       -12658.94555631 Eh         -344467.42097 eV
Kinetic Energy     :         6321.23873516 Eh          172009.65079 eV
Virial Ratio       :            2.00260520


DFT components:
N(Alpha)           :      160.999882588785 electrons
N(Beta)            :      159.999882145028 electrons
N(Total)           :      320.999764733814 electrons
E(X)               :     -341.461588515451 Eh       
E(C)               :      -14.720982663502 Eh       
E(XC)              :     -356.182571178953 Eh       
DFET-embed. en.    :        0.000000000000 Eh       

---------------
SCF CONVERGENCE
---------------

  Last Energy change         ...   -6.8797e-08  Tolerance :   1.0000e-06
  Last MAX-Density change    ...    0.0000e+00  Tolerance :   1.0000e-05
  Last RMS-Density change    ...    0.0000e+00  Tolerance :   1.0000e-06
  Last DIIS Error            ...    3.5332e-05  Tolerance :   1.0000e-06

             **** THE GBW FILE WAS UPDATED (input_1.gbw) ****
             **** DENSITY input_1.scfp WAS UPDATED ****
             **** ENERGY FILE WAS UPDATED (input_1.en.tmp) ****
----------------------
UHF SPIN CONTAMINATION
----------------------

Warning: in a DFT calculation there is little theoretical justification to 
         calculate <S**2> as in Hartree-Fock theory. We will do it anyways
         but you should keep in mind that the values have only limited relevance

Expectation value of <S**2>     :     0.766017
Ideal value S*(S+1) for S=0.5   :     0.750000
Deviation                       :     0.016017

             **** THE GBW FILE WAS UPDATED (input_1.gbw) ****
             **** DENSITY input_1.scfp WAS UPDATED ****
----------------
ORBITAL ENERGIES
----------------
                 SPIN UP ORBITALS
  NO   OCC          E(Eh)            E(eV) 
   0   1.0000    -196.674969     -5351.7980 
   1   1.0000     -88.732992     -2414.5475 
   2   1.0000     -88.732880     -2414.5444 
   3   1.0000     -88.732796     -2414.5421 
   4   1.0000     -88.732741     -2414.5406 
   5   1.0000     -88.730073     -2414.4680 
   6   1.0000     -88.730023     -2414.4667 
   7   1.0000     -88.729920     -2414.4639 
   8   1.0000     -88.729892     -2414.4631 
   9   1.0000     -88.639936     -2412.0153 
  10   1.0000     -88.639825     -2412.0123 
  11   1.0000     -88.639261     -2411.9969 
  12   1.0000     -88.639202     -2411.9953 
  13   1.0000     -22.050228      -600.0172 
  14   1.0000     -18.889491      -514.0092 
  15   1.0000     -18.556761      -504.9551 
  16   1.0000     -18.551476      -504.8113 
  17   1.0000     -18.551371      -504.8085 
  18   1.0000     -10.075826      -274.1772 
  19   1.0000     -10.075651      -274.1724 
  20   1.0000     -10.063192      -273.8334 
  21   1.0000     -10.063092      -273.8307 
  22   1.0000     -10.063036      -273.8291 
  23   1.0000     -10.062982      -273.8277 
  24   1.0000     -10.051184      -273.5066 
  25   1.0000     -10.050975      -273.5009 
  26   1.0000     -10.048235      -273.4264 
  27   1.0000     -10.047990      -273.4197 
  28   1.0000     -10.018183      -272.6086 
  29   1.0000     -10.017812      -272.5985 
  30   1.0000     -10.017079      -272.5786 
  31   1.0000     -10.017017      -272.5769 
  32   1.0000      -7.786413      -211.8791 
  33   1.0000      -7.786309      -211.8762 
  34   1.0000      -7.786176      -211.8726 
  35   1.0000      -7.786165      -211.8723 
  36   1.0000      -7.783320      -211.7949 
  37   1.0000      -7.783287      -211.7940 
  38   1.0000      -7.783202      -211.7917 
  39   1.0000      -7.783177      -211.7910 
  40   1.0000      -7.694194      -209.3697 
  41   1.0000      -7.694045      -209.3656 
  42   1.0000      -7.693519      -209.3513 
  43   1.0000      -7.693435      -209.3490 
  44   1.0000      -5.751407      -156.5038 
  45   1.0000      -5.751298      -156.5008 
  46   1.0000      -5.751181      -156.4976 
  47   1.0000      -5.751161      -156.4971 
  48   1.0000      -5.748263      -156.4182 
  49   1.0000      -5.748228      -156.4172 
  50   1.0000      -5.748146      -156.4150 
  51   1.0000      -5.748122      -156.4143 
  52   1.0000      -5.747986      -156.4106 
  53   1.0000      -5.747888      -156.4080 
  54   1.0000      -5.747761      -156.4045 
  55   1.0000      -5.747738      -156.4039 
  56   1.0000      -5.743827      -156.2975 
  57   1.0000      -5.743813      -156.2971 
  58   1.0000      -5.743721      -156.2946 
  59   1.0000      -5.743669      -156.2932 
  60   1.0000      -5.741216      -156.2264 
  61   1.0000      -5.741107      -156.2235 
  62   1.0000      -5.740961      -156.2195 
  63   1.0000      -5.740959      -156.2194 
  64   1.0000      -5.739153      -156.1703 
  65   1.0000      -5.739098      -156.1688 
  66   1.0000      -5.739023      -156.1667 
  67   1.0000      -5.739016      -156.1666 
  68   1.0000      -5.659507      -154.0030 
  69   1.0000      -5.659359      -153.9990 
  70   1.0000      -5.658816      -153.9842 
  71   1.0000      -5.658783      -153.9833 
  72   1.0000      -5.652841      -153.8216 
  73   1.0000      -5.652688      -153.8174 
  74   1.0000      -5.652186      -153.8038 
  75   1.0000      -5.652104      -153.8016 
  76   1.0000      -5.651553      -153.7866 
  77   1.0000      -5.651392      -153.7822 
  78   1.0000      -5.650854      -153.7676 
  79   1.0000      -5.650747      -153.7646 
  80   1.0000      -2.443623       -66.4944 
  81   1.0000      -1.484634       -40.3989 
  82   1.0000      -1.473205       -40.0880 
  83   1.0000      -1.472455       -40.0675 
  84   1.0000      -0.709190       -19.2980 
  85   1.0000      -0.708805       -19.2876 
  86   1.0000      -0.685102       -18.6426 
  87   1.0000      -0.684872       -18.6363 
  88   1.0000      -0.648921       -17.6580 
  89   1.0000      -0.630933       -17.1686 
  90   1.0000      -0.630716       -17.1627 
  91   1.0000      -0.616596       -16.7784 
  92   1.0000      -0.616093       -16.7647 
  93   1.0000      -0.574361       -15.6292 
  94   1.0000      -0.574068       -15.6212 
  95   1.0000      -0.573221       -15.5981 
  96   1.0000      -0.572299       -15.5731 
  97   1.0000      -0.496404       -13.5078 
  98   1.0000      -0.495785       -13.4910 
  99   1.0000      -0.495108       -13.4726 
 100   1.0000      -0.494717       -13.4619 
 101   1.0000      -0.479538       -13.0489 
 102   1.0000      -0.476923       -12.9777 
 103   1.0000      -0.446841       -12.1592 
 104   1.0000      -0.444684       -12.1005 
 105   1.0000      -0.416076       -11.3220 
 106   1.0000      -0.410885       -11.1807 
 107   1.0000      -0.354698        -9.6518 
 108   1.0000      -0.354434        -9.6446 
 109   1.0000      -0.326099        -8.8736 
 110   1.0000      -0.325843        -8.8666 
 111   1.0000      -0.318688        -8.6719 
 112   1.0000      -0.314175        -8.5491 
 113   1.0000      -0.303925        -8.2702 
 114   1.0000      -0.303135        -8.2487 
 115   1.0000      -0.291780        -7.9397 
 116   1.0000      -0.291413        -7.9298 
 117   1.0000      -0.257642        -7.0108 
 118   1.0000      -0.257228        -6.9995 
 119   1.0000      -0.255479        -6.9519 
 120   1.0000      -0.255237        -6.9454 
 121   1.0000      -0.234165        -6.3720 
 122   1.0000      -0.233583        -6.3561 
 123   1.0000      -0.230588        -6.2746 
 124   1.0000      -0.229338        -6.2406 
 125   1.0000      -0.219694        -5.9782 
 126   1.0000      -0.217781        -5.9261 
 127   1.0000      -0.213675        -5.8144 
 128   1.0000      -0.211738        -5.7617 
 129   1.0000      -0.192577        -5.2403 
 130   1.0000      -0.186979        -5.0879 
 131   1.0000      -0.185462        -5.0467 
 132   1.0000      -0.184245        -5.0136 
 133   1.0000      -0.179053        -4.8723 
 134   1.0000      -0.159583        -4.3425 
 135   1.0000      -0.151181        -4.1138 
 136   1.0000      -0.146479        -3.9859 
 137   1.0000      -0.135244        -3.6802 
 138   1.0000      -0.133901        -3.6436 
 139   1.0000      -0.132633        -3.6091 
 140   1.0000      -0.124229        -3.3804 
 141   1.0000      -0.121062        -3.2943 
 142   1.0000      -0.111907        -3.0451 
 143   1.0000      -0.108406        -2.9499 
 144   1.0000      -0.099476        -2.7069 
 145   1.0000      -0.097717        -2.6590 
 146   1.0000      -0.097022        -2.6401 
 147   1.0000      -0.094031        -2.5587 
 148   1.0000      -0.074116        -2.0168 
 149   1.0000      -0.067164        -1.8276 
 150   1.0000      -0.066761        -1.8166 
 151   1.0000      -0.052092        -1.4175 
 152   1.0000      -0.045437        -1.2364 
 153   1.0000      -0.037221        -1.0128 
 154   1.0000      -0.037147        -1.0108 
 155   1.0000      -0.031630        -0.8607 
 156   1.0000      -0.024308        -0.6614 
 157   1.0000      -0.018784        -0.5111 
 158   1.0000      -0.014668        -0.3991 
 159   1.0000       0.021223         0.5775 
 160   1.0000       0.041128         1.1191 
 161   0.0000       0.137201         3.7334 
 162   0.0000       0.137527         3.7423 
 163   0.0000       0.162528         4.4226 
 164   0.0000       0.162612         4.4249 
 165   0.0000       0.170468         4.6387 
 166   0.0000       0.171308         4.6615 
 167   0.0000       0.173883         4.7316 
 168   0.0000       0.174298         4.7429 
 169   0.0000       0.175356         4.7717 
 170   0.0000       0.176746         4.8095 
 171   0.0000       0.177346         4.8258 
 172   0.0000       0.189753         5.1635 
 173   0.0000       0.191010         5.1976 
 174   0.0000       0.198931         5.4132 
 175   0.0000       0.199293         5.4230 
 176   0.0000       0.201958         5.4955 
 177   0.0000       0.202646         5.5143 
 178   0.0000       0.207904         5.6574 
 179   0.0000       0.213926         5.8212 
 180   0.0000       0.214224         5.8293 
 181   0.0000       0.216524         5.8919 
 182   0.0000       0.216996         5.9048 
 183   0.0000       0.219055         5.9608 
 184   0.0000       0.226398         6.1606 
 185   0.0000       0.230292         6.2666 
 186   0.0000       0.230907         6.2833 
 187   0.0000       0.237206         6.4547 
 188   0.0000       0.238065         6.4781 
 189   0.0000       0.240409         6.5419 
 190   0.0000       0.246580         6.7098 
 191   0.0000       0.247980         6.7479 
 192   0.0000       0.249832         6.7983 
 193   0.0000       0.260197         7.0803 
 194   0.0000       0.261502         7.1158 
 195   0.0000       0.267739         7.2856 
 196   0.0000       0.271498         7.3878 
 197   0.0000       0.272977         7.4281 
 198   0.0000       0.273697         7.4477 
 199   0.0000       0.277265         7.5448 
 200   0.0000       0.287673         7.8280 
 201   0.0000       0.288932         7.8622 
 202   0.0000       0.301778         8.2118 
 203   0.0000       0.307967         8.3802 
 204   0.0000       0.310381         8.4459 
 205   0.0000       0.324235         8.8229 
 206   0.0000       0.333229         9.0676 
 207   0.0000       0.333371         9.0715 
 208   0.0000       0.335835         9.1385 
 209   0.0000       0.343520         9.3477 
 210   0.0000       0.348798         9.4913 
 211   0.0000       0.349398         9.5076 
 212   0.0000       0.352386         9.5889 
 213   0.0000       0.356667         9.7054 
 214   0.0000       0.360131         9.7997 
 215   0.0000       0.370655        10.0860 
 216   0.0000       0.373030        10.1507 
 217   0.0000       0.375932        10.2296 
 218   0.0000       0.383112        10.4250 
 219   0.0000       0.384694        10.4680 
 220   0.0000       0.390202        10.6179 
 221   0.0000       0.391899        10.6641 
 222   0.0000       0.393733        10.7140 
 223   0.0000       0.399484        10.8705 
 224   0.0000       0.401833        10.9344 
 225   0.0000       0.402769        10.9599 
 226   0.0000       0.405679        11.0391 
 227   0.0000       0.409891        11.1537 
 228   0.0000       0.412699        11.2301 
 229   0.0000       0.421383        11.4664 
 230   0.0000       0.422350        11.4927 
 231   0.0000       0.423484        11.5236 
 232   0.0000       0.427804        11.6411 
 233   0.0000       0.434325        11.8186 
 234   0.0000       0.436100        11.8669 
 235   0.0000       0.441004        12.0003 
 236   0.0000       0.449071        12.2198 
 237   0.0000       0.452236        12.3060 
 238   0.0000       0.454044        12.3552 
 239   0.0000       0.466107        12.6834 
 240   0.0000       0.466554        12.6956 
 241   0.0000       0.471727        12.8363 
 242   0.0000       0.473622        12.8879 
 243   0.0000       0.475787        12.9468 
 244   0.0000       0.477737        12.9999 
 245   0.0000       0.479170        13.0389 
 246   0.0000       0.479903        13.0588 
 247   0.0000       0.485914        13.2224 
 248   0.0000       0.487769        13.2729 
 249   0.0000       0.493048        13.4165 
 250   0.0000       0.494519        13.4565 
 251   0.0000       0.502927        13.6853 
 252   0.0000       0.504237        13.7210 
 253   0.0000       0.507387        13.8067 
 254   0.0000       0.509763        13.8714 
 255   0.0000       0.514339        13.9959 
 256   0.0000       0.515109        14.0168 
 257   0.0000       0.517992        14.0953 
 258   0.0000       0.523847        14.2546 
 259   0.0000       0.524669        14.2770 
 260   0.0000       0.526010        14.3135 
 261   0.0000       0.526600        14.3295 
 262   0.0000       0.527767        14.3613 
 263   0.0000       0.528718        14.3872 
 264   0.0000       0.530217        14.4279 
 265   0.0000       0.532383        14.4869 
 266   0.0000       0.536397        14.5961 
 267   0.0000       0.542710        14.7679 
 268   0.0000       0.545882        14.8542 
 269   0.0000       0.551453        15.0058 
 270   0.0000       0.555234        15.1087 
 271   0.0000       0.555978        15.1289 
 272   0.0000       0.561049        15.2669 
 273   0.0000       0.565406        15.3855 
 274   0.0000       0.571908        15.5624 
 275   0.0000       0.572719        15.5845 
 276   0.0000       0.573473        15.6050 
 277   0.0000       0.578156        15.7324 
 278   0.0000       0.580974        15.8091 
 279   0.0000       0.582556        15.8522 
 280   0.0000       0.583584        15.8801 
 281   0.0000       0.587979        15.9997 
 282   0.0000       0.591946        16.1077 
 283   0.0000       0.594343        16.1729 
 284   0.0000       0.604703        16.4548 
 285   0.0000       0.606071        16.4920 
 286   0.0000       0.606404        16.5011 
 287   0.0000       0.614837        16.7306 
 288   0.0000       0.615846        16.7580 
 289   0.0000       0.616984        16.7890 
 290   0.0000       0.619831        16.8665 
 291   0.0000       0.624632        16.9971 
 292   0.0000       0.629148        17.1200 
 293   0.0000       0.631749        17.1908 
 294   0.0000       0.637934        17.3591 
 295   0.0000       0.639064        17.3898 
 296   0.0000       0.641213        17.4483 
 297   0.0000       0.644374        17.5343 
 298   0.0000       0.655459        17.8359 
 299   0.0000       0.660778        17.9807 
 300   0.0000       0.668926        18.2024 
 301   0.0000       0.681269        18.5383 
 302   0.0000       0.686891        18.6913 
 303   0.0000       0.698391        19.0042 
 304   0.0000       0.713499        19.4153 
 305   0.0000       0.715120        19.4594 
 306   0.0000       0.718005        19.5379 
 307   0.0000       0.732078        19.9208 
 308   0.0000       0.735301        20.0086 
 309   0.0000       0.746166        20.3042 
 310   0.0000       0.752668        20.4811 
 311   0.0000       0.762315        20.7437 
 312   0.0000       0.762582        20.7509 
 313   0.0000       0.768657        20.9162 
 314   0.0000       0.770659        20.9707 
 315   0.0000       0.781016        21.2525 
 316   0.0000       0.783639        21.3239 
 317   0.0000       0.795634        21.6503 
 318   0.0000       0.798121        21.7180 
 319   0.0000       0.812339        22.1049 
 320   0.0000       0.820530        22.3278 
 321   0.0000       0.822362        22.3776 
 322   0.0000       0.825540        22.4641 
 323   0.0000       0.827788        22.5252 
 324   0.0000       0.841864        22.9083 
 325   0.0000       0.843791        22.9607 
 326   0.0000       0.855442        23.2778 
 327   0.0000       0.860915        23.4267 
 328   0.0000       0.869351        23.6562 
 329   0.0000       0.871332        23.7101 
 330   0.0000       0.872951        23.7542 
 331   0.0000       0.874307        23.7911 
 332   0.0000       0.876114        23.8403 
 333   0.0000       0.878709        23.9109 
 334   0.0000       0.885984        24.1089 
 335   0.0000       0.896064        24.3831 
 336   0.0000       0.900533        24.5048 
 337   0.0000       0.902820        24.5670 
 338   0.0000       0.912740        24.8369 
 339   0.0000       0.919037        25.0083 
 340   0.0000       0.926399        25.2086 
 341   0.0000       0.936721        25.4895 
 342   0.0000       0.938534        25.5388 
 343   0.0000       0.940137        25.5824 
 344   0.0000       0.943772        25.6813 
 345   0.0000       0.945533        25.7292 
 346   0.0000       0.950324        25.8596 
 347   0.0000       0.958170        26.0731 
 348   0.0000       0.964601        26.2481 
 349   0.0000       0.969245        26.3745 
 350   0.0000       0.977703        26.6047 
 351   0.0000       0.980551        26.6821 
 352   0.0000       0.991233        26.9728 
 353   0.0000       1.007438        27.4138 
 354   0.0000       1.009660        27.4742 
 355   0.0000       1.013960        27.5913 
 356   0.0000       1.015248        27.6263 
 357   0.0000       1.016333        27.6558 
 358   0.0000       1.017241        27.6805 
 359   0.0000       1.022183        27.8150 
 360   0.0000       1.033954        28.1353 
 361   0.0000       1.034685        28.1552 
 362   0.0000       1.041432        28.3388 
 363   0.0000       1.049896        28.5691 
 364   0.0000       1.061311        28.8797 
 365   0.0000       1.063044        28.9269 
 366   0.0000       1.067112        29.0376 
 367   0.0000       1.071368        29.1534 
 368   0.0000       1.074355        29.2347 
 369   0.0000       1.079902        29.3856 
 370   0.0000       1.084898        29.5216 
 371   0.0000       1.095629        29.8136 
 372   0.0000       1.097410        29.8620 
 373   0.0000       1.103426        30.0257 
 374   0.0000       1.108365        30.1601 
 375   0.0000       1.109236        30.1839 
 376   0.0000       1.112727        30.2788 
 377   0.0000       1.118834        30.4450 
 378   0.0000       1.135533        30.8994 
 379   0.0000       1.142636        31.0927 
 380   0.0000       1.146066        31.1861 
 381   0.0000       1.157822        31.5059 
 382   0.0000       1.160552        31.5802 
 383   0.0000       1.163409        31.6580 
 384   0.0000       1.165691        31.7201 
 385   0.0000       1.199204        32.6320 
 386   0.0000       1.206309        32.8253 
 387   0.0000       1.235741        33.6262 
 388   0.0000       1.238153        33.6919 
 389   0.0000       1.240250        33.7489 
 390   0.0000       1.242470        33.8093 
 391   0.0000       1.250331        34.0232 
 392   0.0000       1.274527        34.6816 
 393   0.0000       1.286641        35.0113 
 394   0.0000       1.298012        35.3207 
 395   0.0000       1.305155        35.5151 
 396   0.0000       1.305216        35.5167 
 397   0.0000       1.313928        35.7538 
 398   0.0000       1.318525        35.8789 
 399   0.0000       1.326644        36.0998 
 400   0.0000       1.336568        36.3699 
 401   0.0000       1.352368        36.7998 
 402   0.0000       1.360150        37.0116 
 403   0.0000       1.391791        37.8726 
 404   0.0000       1.399976        38.0953 
 405   0.0000       1.409848        38.3639 
 406   0.0000       1.427447        38.8428 
 407   0.0000       1.428040        38.8589 
 408   0.0000       1.429874        38.9088 
 409   0.0000       1.429968        38.9114 
 410   0.0000       1.442480        39.2519 
 411   0.0000       1.442641        39.2562 
 412   0.0000       1.449944        39.4550 
 413   0.0000       1.487670        40.4816 
 414   0.0000       1.488327        40.4994 
 415   0.0000       1.497041        40.7366 
 416   0.0000       1.500373        40.8272 
 417   0.0000       1.501640        40.8617 
 418   0.0000       1.508366        41.0447 
 419   0.0000       1.511617        41.1332 
[...]
Total number of batches                      ...      302
Average number of points per batch           ...       58
Average number of grid points per atom       ...      444

Memory available               ... 812.5 MB
Memory needed per perturbation ...  48.1 MB
Perturbations treated per batch... 3
Number of batches              ... 1
     CP-SCF ITERATION   0:   4.1086e-02 (   6.2 sec   0/  3 done)
     CP-SCF ITERATION   1:   1.3569e-03 (   6.3 sec   0/  3 done)
     CP-SCF ITERATION   2:   1.4653e-04 (   6.4 sec   3/  3 done)
                    *** THE CP-SCF HAS CONVERGED ***

Forming final perturbed densities           ... done
Transforming perturbed density to AO basis  ... done

 Raw HFC matrix (all values in MHz): 
 -----------------------------------
                -0.0686               0.0366              -0.0129
                 0.0363               0.1534              -0.0809
                -0.0128              -0.0812              -0.0441

 A(FC)           0.0133               0.0133               0.0133
 A(SD)          -0.0869              -0.0891               0.1760
 A(ORB+DIA)      0.0005               0.0013              -0.0011    A(PC) =   0.0002
 A(ORB)          0.0006               0.0013              -0.0011    A(PC) =   0.0003
 A(DIA)         -0.0000              -0.0000               0.0000    A(PC) =  -0.0000
             ----------           ----------           ----------
 A(Tot)         -0.0731              -0.0744               0.1882    A(iso)=    0.0136
 Orientation: 
  X           0.1037057            0.9833316            0.1493455
  Y           0.3199878           -0.1751581            0.9310894
  Z           0.9417287           -0.0487706           -0.3328190

Notes:  (1) The A matrix conforms to the "SAI" spin Hamiltonian convention.
        (2) Tensor is right-handed.

 Raw EFG matrix (all values in a.u.**-3):
 -----------------------------------
            -0.1387      -0.0190       0.0363
            -0.0190      -0.0156      -0.2006
             0.0363      -0.2006       0.1543

 V(El)       0.5509       0.8147      -1.3656
 V(Nuc)     -0.6913      -0.9654       1.6566
         ----------   ----------   ----------
 V(Tot)     -0.1404      -0.1506       0.2910 
 Orientation: 
  X       0.8830674   -0.4596517    0.0944050
  Y       0.4313306    0.7158928   -0.5490458
  Z       0.1847860    0.5255642    0.8304435

Note: Tensor is right-handed


 Quadrupole tensor eigenvalues (in MHz;Q= 0.0029 I=  1.0)
  e**2qQ            =     0.195422 MHz 
  e**2qQ/(4I*(2I-1))=     0.048856 MHz 
  eta               =     0.035176
  NOTE: the diagonal representation of the SH term I*Q*I = e**2qQ/(4I(2I-1))*[-(1-eta),-(1+eta),2]

 RHO(0)=      0.443724347 a.u.**-3

 -----------------------------------------------------------
 Nucleus  39H : A:ISTP=    1 I=  0.5 P=533.5514 MHz/au**3
                Q:ISTP=    2 I=  1.0 Q=  0.0029 barn     
 -----------------------------------------------------------
 Solving for nuclear perturbation:
Forming RHS of the CP-SCF equations         ... 
Calc. nucleus orbit integrals (SHARK)       ... done

------------------------------------------------------------------------------
                           ORCA CP-SCF CALCULATION
------------------------------------------------------------------------------

Input orbitals are from        ... input_1.gbw
Input Perturbation             ... input_1.pin.tmp
Wavefunction output            ... input_1.pout.tmp
Perturbation mode              ... Imaginary perturbation
Solver                         ... POPLE
Max. number of iterations      ... 64
Convergence tolerance          ... 1.000e-03
Integral handling              ... Direct
DFT GridXC                     ... 1
COSX GridX                     ... 1
COSX IntAccX                   ... 3.067
COSX Algorithm                 ... Auto
Number of perturbations        ... 3
Number of operators            ... 2
Orbital ranges used for CP-SCF:
 Operator 0:  Orbitals   0...160  to 161...680
 Operator 1:  Orbitals   0...159  to 160...680
Variables per perturbation     ... 167080
DFT calculation                         ... on
XC functional terms                     ... off
Hybrid DFT                              ... on
   Exchange mixing (SCF)                ...  0.200
   Exchange mixing (CP-SCF)             ...  0.200
   GGA exch. scaling(SCF)               ...  0.720
   GGA exch. scaling (CP-SCF)           ...  0.720
   GGA corr. scaling (SCF)              ...  0.810
   GGA corr. scaling (CP-SCF)           ...  0.810

CP-SCF GRID
-----------

General Integration Accuracy     IntAcc      ... 3.467
Radial Grid Type                 RadialGrid  ... OptM3 with GC (2021)
Angular Grid (max. ang.)         AngularGrid ... 1 (Lebedev-50)
Angular grid pruning method      GridPruning ... 4 (adaptive)
Weight generation scheme         WeightScheme... Becke
Basis function cutoff            BFCut       ... 1.0000e-10
Integration weight cutoff        WCut        ... 1.0000e-14
Angular grids for H and He will be reduced by one unit
Partially contracted basis set               ... off
Rotationally invariant grid construction     ... off

Total number of grid points                  ...    39394
Total number of batches                      ...      636
Average number of points per batch           ...       61
Average number of grid points per atom       ...      985

CP-SCF GRIDX
------------

General Integration Accuracy     IntAcc      ... 3.067
Radial Grid Type                 RadialGrid  ... OptM3 with GC (2021)
Angular Grid (max. ang.)         AngularGrid ... 1 (Lebedev-50)
Angular grid pruning method      GridPruning ... 4 (adaptive)
Weight generation scheme         WeightScheme... Becke
Basis function cutoff            BFCut       ... 1.0000e-10
Integration weight cutoff        WCut        ... 1.0000e-14
Angular grids for H and He will be reduced by one unit
Partially contracted basis set               ... on
Rotationally invariant grid construction     ... off

Total number of grid points                  ...    17778
Total number of batches                      ...      302
Average number of points per batch           ...       58
Average number of grid points per atom       ...      444

Memory available               ... 809.6 MB
Memory needed per perturbation ...  48.1 MB
Perturbations treated per batch... 3
Number of batches              ... 1
     CP-SCF ITERATION   0:   4.5550e-02 (   6.2 sec   0/  3 done)
     CP-SCF ITERATION   1:   1.6763e-03 (   6.3 sec   1/  3 done)
     CP-SCF ITERATION   2:   1.7583e-04 (   5.1 sec   3/  3 done)
                    *** THE CP-SCF HAS CONVERGED ***

Forming final perturbed densities           ... done
Transforming perturbed density to AO basis  ... done

 Raw HFC matrix (all values in MHz): 
 -----------------------------------
                -0.1159               0.0982              -0.0349
                 0.0978               0.2029              -0.1106
                -0.0350              -0.1109              -0.1124

 A(FC)          -0.0089              -0.0089              -0.0089
 A(SD)          -0.1349              -0.1417               0.2767
 A(ORB+DIA)      0.0021               0.0009              -0.0015    A(PC) =   0.0005
 A(ORB)          0.0021               0.0009              -0.0015    A(PC) =   0.0005
 A(DIA)         -0.0000              -0.0001               0.0000    A(PC) =  -0.0000
             ----------           ----------           ----------
 A(Tot)         -0.1418              -0.1498               0.2662    A(iso)=   -0.0085
 Orientation: 
  X           0.8120245            0.5209353           -0.2631399
  Y          -0.3749123            0.1200647           -0.9192526
  Z          -0.4472773            0.8451100            0.2928005

Notes:  (1) The A matrix conforms to the "SAI" spin Hamiltonian convention.
        (2) Tensor is right-handed.

 Raw EFG matrix (all values in a.u.**-3):
 -----------------------------------
             0.0069      -0.1970      -0.0501
            -0.1970       0.1186       0.0692
            -0.0501       0.0692      -0.1255

 V(El)       0.6378       0.4487      -1.0865
 V(Nuc)     -0.7787      -0.5931       1.3718
         ----------   ----------   ----------
 V(Tot)     -0.1408      -0.1444       0.2853 
 Orientation: 
  X      -0.7233066   -0.3592494   -0.5897181
  Y      -0.3989155   -0.4796988    0.7815085
  Z      -0.5636435    0.8005180    0.2036592

Note: Tensor is right-handed


 Quadrupole tensor eigenvalues (in MHz;Q= 0.0029 I=  1.0)
  e**2qQ            =     0.191544 MHz 
  e**2qQ/(4I*(2I-1))=     0.047886 MHz 
  eta               =     0.012764
  NOTE: the diagonal representation of the SH term I*Q*I = e**2qQ/(4I(2I-1))*[-(1-eta),-(1+eta),2]

 RHO(0)=      0.441498541 a.u.**-3

 -----------------------------------------------------------
 Nucleus   0V : A:ISTP=   51 I=  3.5 P=140.5173 MHz/au**3
                Q:ISTP=   51 I=  3.5 Q= -0.0430 barn     
 -----------------------------------------------------------
 Solving for nuclear perturbation:
Forming RHS of the CP-SCF equations         ... 
Calc. nucleus orbit integrals (SHARK)       ... done

------------------------------------------------------------------------------
                           ORCA CP-SCF CALCULATION
------------------------------------------------------------------------------

Input orbitals are from        ... input_1.gbw
Input Perturbation             ... input_1.pin.tmp
Wavefunction output            ... input_1.pout.tmp
Perturbation mode              ... Imaginary perturbation
Solver                         ... POPLE
Max. number of iterations      ... 64
Convergence tolerance          ... 1.000e-03
Integral handling              ... Direct
DFT GridXC                     ... 1
COSX GridX                     ... 1
COSX IntAccX                   ... 3.067
COSX Algorithm                 ... Auto
Number of perturbations        ... 3
Number of operators            ... 2
Orbital ranges used for CP-SCF:
 Operator 0:  Orbitals   0...160  to 161...680
 Operator 1:  Orbitals   0...159  to 160...680
Variables per perturbation     ... 167080
DFT calculation                         ... on
XC functional terms                     ... off
Hybrid DFT                              ... on
   Exchange mixing (SCF)                ...  0.200
   Exchange mixing (CP-SCF)             ...  0.200
   GGA exch. scaling(SCF)               ...  0.720
   GGA exch. scaling (CP-SCF)           ...  0.720
   GGA corr. scaling (SCF)              ...  0.810
   GGA corr. scaling (CP-SCF)           ...  0.810

CP-SCF GRID
-----------

General Integration Accuracy     IntAcc      ... 3.467
Radial Grid Type                 RadialGrid  ... OptM3 with GC (2021)
Angular Grid (max. ang.)         AngularGrid ... 1 (Lebedev-50)
Angular grid pruning method      GridPruning ... 4 (adaptive)
Weight generation scheme         WeightScheme... Becke
Basis function cutoff            BFCut       ... 1.0000e-10
Integration weight cutoff        WCut        ... 1.0000e-14
Angular grids for H and He will be reduced by one unit
Partially contracted basis set               ... off
Rotationally invariant grid construction     ... off

Total number of grid points                  ...    39394
Total number of batches                      ...      636
Average number of points per batch           ...       61
Average number of grid points per atom       ...      985

CP-SCF GRIDX
------------

General Integration Accuracy     IntAcc      ... 3.067
Radial Grid Type                 RadialGrid  ... OptM3 with GC (2021)
Angular Grid (max. ang.)         AngularGrid ... 1 (Lebedev-50)
Angular grid pruning method      GridPruning ... 4 (adaptive)
Weight generation scheme         WeightScheme... Becke
Basis function cutoff            BFCut       ... 1.0000e-10
Integration weight cutoff        WCut        ... 1.0000e-14
Angular grids for H and He will be reduced by one unit
Partially contracted basis set               ... on
Rotationally invariant grid construction     ... off

Total number of grid points                  ...    17778
Total number of batches                      ...      302
Average number of points per batch           ...       58
Average number of grid points per atom       ...      444

Memory available               ... 806.8 MB
Memory needed per perturbation ...  48.1 MB
Perturbations treated per batch... 3
Number of batches              ... 1
     CP-SCF ITERATION   0:   1.3433e+01 (   6.6 sec   0/  3 done)
     CP-SCF ITERATION   1:   1.9339e+00 (   6.3 sec   0/  3 done)
     CP-SCF ITERATION   2:   3.5138e-01 (   6.4 sec   0/  3 done)
     CP-SCF ITERATION   3:   4.0825e-02 (   6.3 sec   0/  3 done)
     CP-SCF ITERATION   4:   6.3580e-03 (   6.4 sec   0/  3 done)
     CP-SCF ITERATION   5:   1.8465e-03 (   6.4 sec   0/  3 done)
     CP-SCF ITERATION   6:   3.6710e-04 (   6.4 sec   3/  3 done)
                    *** THE CP-SCF HAS CONVERGED ***

Forming final perturbed densities           ... done
Transforming perturbed density to AO basis  ... done

 Raw HFC matrix (all values in MHz): 
 -----------------------------------
              -366.8317              25.2695              71.9922
                27.0888             -90.7238              -6.8874
                71.9899              -6.3741            -102.0398

 A(FC)        -174.5378            -174.5378            -174.5378
 A(SD)          97.6135              94.1338            -191.7473
 A(ORB+DIA)     -7.0611              -7.6126             -21.3081    A(PC) = -11.9939
 A(ORB)         -7.0607              -7.6130             -21.3079    A(PC) = -11.9939
 A(DIA)         -0.0004               0.0004              -0.0002    A(PC) =  -0.0000
             ----------           ----------           ----------
 A(Tot)        -83.9854             -88.0166            -387.5932    A(iso)= -186.5317
 Orientation: 
  X          -0.2203009            0.1397333            0.9653715
  Y           0.2296734            0.9692914           -0.0878884
  Z          -0.9480072            0.2023583           -0.2456288

Notes:  (1) The A matrix conforms to the "SAI" spin Hamiltonian convention.
        (2) Tensor is right-handed.

 Raw EFG matrix (all values in a.u.**-3):
 -----------------------------------
             0.2029      -0.0886      -0.0761
            -0.0886      -0.1764       0.0352
            -0.0761       0.0352      -0.0265

 V(El)       0.1818      -0.4959       0.3142
 V(Nuc)     -0.2308       0.2978      -0.0669
         ----------   ----------   ----------
 V(Tot)     -0.0490      -0.1982       0.2472 
 Orientation: 
  X       0.3051513    0.1937094   -0.9323944
  Y       0.0505679    0.9744160    0.2189893
  Z       0.9509604   -0.1139741    0.2875488

Note: Tensor is right-handed


 Quadrupole tensor eigenvalues (in MHz;Q=-0.0430 I=  3.5)
  e**2qQ            =    -2.497738 MHz 
  e**2qQ/(4I*(2I-1))=    -0.029735 MHz 
  eta               =     0.603195
  NOTE: the diagonal representation of the SH term I*Q*I = e**2qQ/(4I(2I-1))*[-(1-eta),-(1+eta),2]

 RHO(0)=   8115.190774847 a.u.**-3


--------------------------------------------------------------------------------
----------------------------------------------------------------------------
                           ORCA EULER ANGLE PROGRAM
----------------------------------------------------------------------------

Only g-tensor available        -->  using g-tensor as reference tensor

Reference tensor               ...  g

g-tensor ordering              ...  |g_min> --> |gx>
                                    |g_mid> --> |gy>
                                    |g_max> --> |gz>

A- and EFG-tensor ordering     ...  the axes |Ax>, |Qx>, |Ay>, etc. are assigned
                                    such that the Euler rotation is minimal. You
                                    can find the respective eigenvalues as Ax,
                                    EFGx, Ay, etc. in the tables below.
                                    The relation of |Ax>, |Ay>,  etc. to Amin, Amid, etc.
                                    (as printed in the ORCA EPR/NMR CALCULATION Output)
                                    is obtained in the detailed printout.

Euler rotation around          ...  z - y - z
   First rotation              -->  by alpha around z
   Second rotation             -->  by beta around y'
   Third rotation              -->  by gamma around z''
   Positive / Negative angle   -->  clockwise / counterclockwise rotation

Plot EFG-tensors                    (-)
Plot HFC-tensors                    (-)
Detailed Printout                   (-)

-------------------------------------------------------------------------
          Euler rotation of hyperfine tensor to g-tensor
-------------------------------------------------------------------------

-------------------------------------------------------------------
 Atom  |   Alpha    Beta    Gamma   |   Ax       Ay       Az 
       |          [degrees]         |           [MHz]         
-------------------------------------------------------------------
 25H       16.2      7.1    -41.7      -0.13     0.26    -0.13
 26H     -173.6     11.4    154.3      -0.08     0.17    -0.08
 27H       70.6     11.7    -95.1      -0.07     0.13    -0.07
 28H       72.8     12.2    -87.5      -0.07     0.13    -0.07
 29H       45.8     34.5    -61.2      -0.08     0.16    -0.08
 30H       73.6     20.7    -99.6      -0.13     0.26    -0.13
 34H       42.2      8.0    -46.7      -0.14     0.27    -0.15
 35H      178.0     21.4   -177.7      -0.07     0.19    -0.07
 36H      126.9     17.3   -121.1      -0.07     0.14    -0.07
 37H      117.0     16.5   -121.5      -0.07     0.15    -0.07
 38H       71.2     29.7    -65.8      -0.07     0.19    -0.07
 39H      118.2     27.6   -124.7      -0.14     0.27    -0.15
  0V     -142.0      3.7    152.6    -387.59   -88.02   -83.99
-------------------------------------------------------------------


-------------------------------------------------------------------------------
    Euler rotation of Electric Field Gradient (EFG) tensor to g-tensor
-------------------------------------------------------------------------------

-------------------------------------------------------------------
 Atom  |   Alpha    Beta    Gamma  |   EFGx     EFGy     EFGz
       |          [degrees]        |         [a.u.**-3]       
-------------------------------------------------------------------
 25H       20.1     33.9     17.9     -0.15     0.29    -0.14
 26H      136.5     48.3   -108.1     -0.14    -0.15     0.29
 27H      109.3     11.9    -92.5      0.28    -0.15    -0.14
 28H      126.2     11.7    -92.6     -0.15     0.28    -0.14
 29H      -29.9     26.2     61.1     -0.14    -0.15     0.29
 30H      169.4     46.9   -138.1     -0.15     0.29    -0.14
 34H      -75.0     25.4     41.5      0.29    -0.14    -0.14
 35H      -55.0     48.9     37.9     -0.15     0.29    -0.14
 36H       70.9     15.2   -107.3      0.28    -0.15    -0.14
 37H      143.8     15.2   -107.0      0.28    -0.14    -0.14
 38H     -139.0     22.8     98.0     -0.15    -0.14     0.29
 39H      -84.9     36.9     50.5      0.29    -0.14    -0.14
  0V      105.6     15.5   -102.4      0.25    -0.20    -0.05
-------------------------------------------------------------------


Maximum memory used throughout the entire EPRNMR-calculation: 318.9 MB

Timings for individual modules:

Sum of individual times         ...     3993.788 sec (=  66.563 min)
GTO integral calculation        ...        1.387 sec (=   0.023 min)   0.0 %
Spin-Orbit-Coupling Matrices    ...       13.024 sec (=   0.217 min)   0.3 %
SCF iterations                  ...      264.668 sec (=   4.411 min)   6.6 %
EPR/NMR calculation             ...     3714.708 sec (=  61.912 min)  93.0 %
                             ****ORCA TERMINATED NORMALLY****
TOTAL RUN TIME: 0 days 1 hours 6 minutes 34 seconds 947 msec
