
                                 *****************
                                 * O   R   C   A *
                                 *****************

                                            #,                                       
                                            ###                                      
                                            ####                                     
                                            #####                                    
                                            ######                                   
                                           ########,                                 
                                     ,,################,,,,,                         
                               ,,#################################,,                 
                          ,,##########################################,,             
                       ,#########################################, ''#####,          
                    ,#############################################,,   '####,        
                  ,##################################################,,,,####,       
                ,###########''''           ''''###############################       
              ,#####''   ,,,,##########,,,,          '''####'''          '####       
            ,##' ,,,,###########################,,,                        '##       
           ' ,,###''''                  '''############,,,                           
         ,,##''                                '''############,,,,        ,,,,,,###''
      ,#''                                            '''#######################'''  
     '                                                          ''''####''''         
             ,#######,   #######,   ,#######,      ##                                
            ,#'     '#,  ##    ##  ,#'     '#,    #''#        ######   ,####,        
            ##       ##  ##   ,#'  ##            #'  '#       #        #'  '#        
            ##       ##  #######   ##           ,######,      #####,   #    #        
            '#,     ,#'  ##    ##  '#,     ,#' ,#      #,         ##   #,  ,#        
             '#######'   ##     ##  '#######'  #'      '#     #####' # '####'        



                  #######################################################
                  #                        -***-                        #
                  #          Department of theory and spectroscopy      #
                  #    Directorship and core code : Frank Neese         #
                  #        Max Planck Institute fuer Kohlenforschung    #
                  #                Kaiser Wilhelm Platz 1               #
                  #                 D-45470 Muelheim/Ruhr               #
                  #                      Germany                        #
                  #                                                     #
                  #                  All rights reserved                #
                  #                        -***-                        #
                  #######################################################


                         Program Version 5.0.4 -  RELEASE  -


 With contributions from (in alphabetic order):
   Daniel Aravena         : Magnetic Suceptibility
   Michael Atanasov       : Ab Initio Ligand Field Theory (pilot matlab implementation)
   Alexander A. Auer      : GIAO ZORA, VPT2 properties, NMR spectrum
   Ute Becker             : Parallelization
   Giovanni Bistoni       : ED, misc. LED, open-shell LED, HFLD
   Martin Brehm           : Molecular dynamics
   Dmytro Bykov           : SCF Hessian
   Vijay G. Chilkuri      : MRCI spin determinant printing, contributions to CSF-ICE
   Dipayan Datta          : RHF DLPNO-CCSD density
   Achintya Kumar Dutta   : EOM-CC, STEOM-CC
   Dmitry Ganyushin       : Spin-Orbit,Spin-Spin,Magnetic field MRCI
   Miquel Garcia          : C-PCM and meta-GGA Hessian, CC/C-PCM, Gaussian charge scheme
   Yang Guo               : DLPNO-NEVPT2, F12-NEVPT2, CIM, IAO-localization
   Andreas Hansen         : Spin unrestricted coupled pair/coupled cluster methods
   Benjamin Helmich-Paris : MC-RPA, TRAH-SCF, COSX integrals
   Lee Huntington         : MR-EOM, pCC
   Robert Izsak           : Overlap fitted RIJCOSX, COSX-SCS-MP3, EOM
   Marcus Kettner         : VPT2
   Christian Kollmar      : KDIIS, OOCD, Brueckner-CCSD(T), CCSD density, CASPT2, CASPT2-K
   Simone Kossmann        : Meta GGA functionals, TD-DFT gradient, OOMP2, MP2 Hessian
   Martin Krupicka        : Initial AUTO-CI
   Lucas Lang             : DCDCAS
   Marvin Lechner         : AUTO-CI (C++ implementation), FIC-MRCC
   Dagmar Lenk            : GEPOL surface, SMD
   Dimitrios Liakos       : Extrapolation schemes; Compound Job, initial MDCI parallelization
   Dimitrios Manganas     : Further ROCIS development; embedding schemes
   Dimitrios Pantazis     : SARC Basis sets
   Anastasios Papadopoulos: AUTO-CI, single reference methods and gradients
   Taras Petrenko         : DFT Hessian,TD-DFT gradient, ASA, ECA, R-Raman, ABS, FL, XAS/XES, NRVS
   Peter Pinski           : DLPNO-MP2, DLPNO-MP2 Gradient
   Christoph Reimann      : Effective Core Potentials
   Marius Retegan         : Local ZFS, SOC
   Christoph Riplinger    : Optimizer, TS searches, QM/MM, DLPNO-CCSD(T), (RO)-DLPNO pert. Triples
   Tobias Risthaus        : Range-separated hybrids, TD-DFT gradient, RPA, STAB
   Michael Roemelt        : Original ROCIS implementation
   Masaaki Saitow         : Open-shell DLPNO-CCSD energy and density
   Barbara Sandhoefer     : DKH picture change effects
   Avijit Sen             : IP-ROCIS
   Kantharuban Sivalingam : CASSCF convergence, NEVPT2, FIC-MRCI
   Bernardo de Souza      : ESD, SOC TD-DFT
   Georgi Stoychev        : AutoAux, RI-MP2 NMR, DLPNO-MP2 response
   Willem Van den Heuvel  : Paramagnetic NMR
   Boris Wezisla          : Elementary symmetry handling
   Frank Wennmohs         : Technical directorship


 We gratefully acknowledge several colleagues who have allowed us to
 interface, adapt or use parts of their codes:
   Stefan Grimme, W. Hujo, H. Kruse, P. Pracht,  : VdW corrections, initial TS optimization,
                  C. Bannwarth, S. Ehlert          DFT functionals, gCP, sTDA/sTD-DF
   Ed Valeev, F. Pavosevic, A. Kumar             : LibInt (2-el integral package), F12 methods
   Garnet Chan, S. Sharma, J. Yang, R. Olivares  : DMRG
   Ulf Ekstrom                                   : XCFun DFT Library
   Mihaly Kallay                                 : mrcc  (arbitrary order and MRCC methods)
   Jiri Pittner, Ondrej Demel                    : Mk-CCSD
   Frank Weinhold                                : gennbo (NPA and NBO analysis)
   Christopher J. Cramer and Donald G. Truhlar   : smd solvation model
   Lars Goerigk                                  : TD-DFT with DH, B97 family of functionals
   V. Asgeirsson, H. Jonsson                     : NEB implementation
   FAccTs GmbH                                   : IRC, NEB, NEB-TS, DLPNO-Multilevel, CI-OPT
                                                   MM, QMMM, 2- and 3-layer-ONIOM, Crystal-QMMM,
                                                   LR-CPCM, SF, NACMEs, symmetry and pop. for TD-DFT,
                                                   nearIR, NL-DFT gradient (VV10), updates on ESD,
                                                   ML-optimized integration grids
   S Lehtola, MJT Oliveira, MAL Marques          : LibXC Library
   Liviu Ungur et al                             : ANISO software


 Your calculation uses the libint2 library for the computation of 2-el integrals
 For citations please refer to: http://libint.valeyev.net

 Your ORCA version has been built with support for libXC version: 5.1.0
 For citations please refer to: https://tddft.org/programs/libxc/

 This ORCA versions uses:
   CBLAS   interface :  Fast vector & matrix operations
   LAPACKE interface :  Fast linear algebra routines
   SCALAPACK package :  Parallel linear algebra routines
   Shared memory     :  Shared parallel matrices
   BLAS/LAPACK       :  OpenBLAS 0.3.15  USE64BITINT DYNAMIC_ARCH NO_AFFINITY Prescott SINGLE_THREADED
        Core in use  :  Prescott
   Copyright (c) 2011-2014, The OpenBLAS Project


================================================================================

----- Orbital basis set information -----
Your calculation utilizes the basis: TZVP 

The basis set includes element-specific modifications.

Your calculation utilizes the basis: CP(PPP) 

----- AuxJ basis set information -----
Your calculation utilizes the auxiliary basis: def2/J
   F. Weigend, Phys. Chem. Chem. Phys. 8, 1057 (2006).

================================================================================
                                        WARNINGS
                       Please study these warnings very carefully!
================================================================================


WARNING: your system is open-shell and RHF/RKS was chosen
  ===> : WILL SWITCH to UHF/UKS


INFO   : the flag for use of the SHARK integral package has been found!

================================================================================
                                       INPUT FILE
================================================================================
NAME = input_36.inp
|  1> ! nofrozencore ReducedPop printbasis
|  2> ! B3LYP TZVP
|  3> 
|  4> %basis
|  5> newgto V "CP(PPP)" end
|  6> end
|  7> 
|  8> %pal
|  9> nprocs 6
| 10> end
| 11> 
| 12> % sym SymThresh 1e-2 end
| 13> * xyz -2 2 
| 14> V -0.7476321414940985 -0.24907084957132555 -0.7924368724117816
| 15> S 1.1515540381961267 0.4723385342537014 -2.1704910227849963
| 16> S 0.5966000835311577 -2.3097466937230666 -0.3030931119507336
| 17> S -1.1121528155061962 2.161609248014257 -0.341418296135224
| 18> S -1.5921200465179908 -0.5497135504601384 1.5225907484160215
| 19> O -1.9028768816797275 -0.7409317874741491 -1.766534533905635
| 20> C -0.3090111750145039 -2.934604377402241 1.0472081320968458
| 21> C -1.1878104927485789 -2.236714766785019 1.7896391689377544
| 22> C 0.915692487087845 2.216644702950778 -2.208091357452661
| 23> C 0.009462331930654601 2.8818968583796103 -1.4695848016083215
| 24> S 0.05041287879865489 -4.6152874176670435 1.5368869716945692
| 25> S -1.8802278500932637 -3.0890570318886903 3.2033855294390814
| 26> S -0.03618686944760484 4.663343727525701 -1.6263694960147552
| 27> S 1.961484724748167 3.2271114222106125 -3.2597527303644376
| 28> C -1.1270957664793686 -4.646447357566875 2.872546661643305
| 29> C 1.339485520548679 4.791043771408852 -2.739468228832358
| 30> C -1.3109318770985339 -5.703185214322076 3.7084074527854916
| 31> C 1.845048847359717 5.968175074057652 -3.2102439282201805
| 32> S -0.42498820970873086 -7.206468878558179 3.570342967892442
| 33> S -2.2486009657285355 -5.682105106432015 5.21603417882484
| 34> S 3.1806284187814904 6.072333007064958 -4.386363269193058
| 35> S 1.1805817783539059 7.529351393568953 -2.7208131825073933
| 36> C 2.684363232911321 8.185003624493188 -1.869720904547326
| 37> C 4.389336386158509 6.935531452489974 -3.2833313889538007
| 38> C 3.8840773147073877 8.298590966538361 -2.8097073565551898
| 39> H 2.9105831567414544 7.523620271514513 -1.0292135838040892
| 40> H 2.4026245095068695 9.163362848584436 -1.4706717555142745
| 41> H 4.699960929819043 8.814830426310616 -2.282868610820418
| 42> H 3.6134444728695456 8.910900230480454 -3.6767961029424714
| 43> H 5.310542587209476 7.037294922891435 -3.864824599197995
| 44> H 4.591532048132545 6.279418384796074 -2.4320627353336977
| 45> C -3.481806738810624 -6.916009222877359 4.617996158731431
| 46> C -1.9138251547772296 -8.231348032167475 3.2187586949489657
| 47> C -2.7994520761485124 -8.274871085974073 4.463101765590166
| 48> H -2.4485096289566792 -7.757729020170796 2.3764898931839142
| 49> H -1.5703768364395048 -9.230423360029407 2.8991723145483594
| 50> H -2.178562808955439 -8.485686823738193 5.356382774013283
| 51> H -3.5561793860475133 -9.083989462522648 4.376418965719489
| 52> H -4.3249741420643275 -6.933099827216726 5.334888584468879
| 53> H -3.8579238998859733 -6.554411201143115 3.6412262377124125
| 54> * 
| 55> 
| 56> % eprnmr
| 57> gtensor true
| 58> Nuclei = all H {aiso,adip,aorb,fgrad,rho}
| 59> Nuclei = all V {aiso,adip,aorb,fgrad,rho}
| 60> end
| 61> 
| 62>                          ****END OF INPUT****
================================================================================

------------------------------------------------------------------------------
                            SYMMETRY HANDLING SETUP
------------------------------------------------------------------------------

------------------
SYMMETRY DETECTION
------------------
The point group will now be determined using a tolerance of 1.0000e-02.
Splitting atom subsets according to nuclear charge, mass and basis set.
Splitting atom subsets according to distance from the molecule's center.
Identifying relative distance patterns of the atoms.
Splitting atom subsets according to atoms' relative distance patterns.
Bring atoms of each subset into input order.
The molecule is neither linear nor planar.
There is at least one atom subset not centered around the molecule's center.
The molecule does not have a center of inversion.
Analyzing the first atom subset for its symmetry.
The subset consists of a single off-center atom.
No testing is needed for point group C1.
This point group has been found:    C1
Largest non-degenerate subgroup:    C1


Mass-centered symmetry-perfected Cartesians (point group C1):

Atom          Symmetry-perfected Cartesians (x, y, z; au)
  0      -1.409543125451   -0.472909510930   -1.491425371035
  1       2.179398631492    0.890356654941   -4.095570312954
  2       1.130687640238   -4.367022507163   -0.566699678421
  3      -2.098387369486    4.082615670002   -0.639123780562
  4      -3.005393989355   -1.041041879772    2.883342824792
  5      -3.592639302055   -1.402391979540   -3.332203178952
  6      -0.580669622209   -5.547832401993    1.984999871122
  7      -2.241359659403   -4.229012166218    3.387991204075
  8       1.733684894375    4.186617607487   -4.166624648020
  9       0.021158086827    5.443761991249   -2.771049509369
 10       0.098543405442   -8.723863066020    2.910358771538
 11      -3.549838835158   -5.839705619630    6.059584648250
 12      -0.065106402010    8.810208696066   -3.067329643787
 13       3.709945816534    6.096122974330   -6.153976628447
 14      -2.126625454458   -8.782746818780    5.434389793660
 15       2.534537665080    9.051526806295   -5.170781408828
 16      -2.474025357054  -10.779691963394    7.013937775001
 17       3.489913896107   11.275982591967   -6.060418551176
 18      -0.799834455605  -13.620486390398    6.753033709732
 19      -4.245963138808  -10.739856332609    9.862939399396
 20       6.013793516154   11.472812560027   -8.282962006422
 21       2.234253110677   14.226178282607   -5.135528480258
 22       5.075988225060   15.465181438148   -3.527197160218
 23       8.297920550385   13.104021221106   -6.198533835786
 24       7.343119278663   15.679830406894   -5.303514124109
 25       5.503481927135   14.215348031484   -1.938868510457
 26       4.543579196505   17.314012432276   -2.773103554571
 27       8.884915868378   16.655381605387   -4.307933177932
 28       6.831697324745   16.836927225007   -6.942074388586
 29      10.038747983242   13.296326310603   -7.297396751882
 30       8.680014976983   11.864147210278   -4.589869214052
 31      -6.576384316704  -13.071597188208    8.732811323747
 32      -3.613328539848  -15.557227311085    6.088635720875
 33      -5.286920878068  -15.639473963291    8.440103341030
 34      -4.623735764107  -14.662217086593    4.496978354393
 35      -2.964305277034  -17.445206067902    5.484704985787
 36      -4.113610203582  -16.037857972386   10.128159807582
 37      -6.716928251836  -17.168486104891    8.276296588753
 38      -8.169739793903  -13.103893749873   10.087541675873
 39      -7.287142745404  -12.388275956563    6.886983677169


------------------
SYMMETRY REDUCTION
------------------
ORCA supports only abelian point groups.
It is now checked, if the determined point group is supported:
Point Group ( C1    ) is          ... supported

The point group is C1 - hence turning off symmetry
If this is a round-off problem, please increase the symmetry
        detection tolerance (%method SymThresh)

Storing the symmetry object:
Symmetry file                     ... input_36.sym.tmp
Writing symmetry information      ... done

                       ****************************
                       * Single Point Calculation *
                       ****************************

---------------------------------
CARTESIAN COORDINATES (ANGSTROEM)
---------------------------------
  V     -0.745898   -0.250253   -0.789228
  S      1.153288    0.471156   -2.167282
  S      0.598334   -2.310929   -0.299885
  S     -1.110419    2.160427   -0.338210
  S     -1.590386   -0.550896    1.525799
  O     -1.901143   -0.742114   -1.763326
  C     -0.307277   -2.935786    1.050417
  C     -1.186076   -2.237897    1.792848
  C      0.917427    2.215463   -2.204883
  C      0.011196    2.880715   -1.466376
  S      0.052147   -4.616470    1.540096
  S     -1.878494   -3.090239    3.206594
  S     -0.034453    4.662162   -1.623161
  S      1.963219    3.225929   -3.256544
  C     -1.125362   -4.647629    2.875755
  C      1.341220    4.789862   -2.736260
  C     -1.309198   -5.704367    3.711616
  C      1.846783    5.966993   -3.207035
  S     -0.423254   -7.207651    3.573552
  S     -2.246867   -5.683287    5.219243
  S      3.182362    6.071151   -4.383155
  S      1.182316    7.528169   -2.717605
  C      2.686097    8.183822   -1.866512
  C      4.391070    6.934349   -3.280123
  C      3.885811    8.297409   -2.806499
  H      2.912317    7.522438   -1.026005
  H      2.404359    9.162181   -1.467463
  H      4.701695    8.813648   -2.279660
  H      3.615179    8.909718   -3.673588
  H      5.312277    7.036113   -3.861616
  H      4.593266    6.278236   -2.428854
  C     -3.480073   -6.917191    4.621205
  C     -1.912091   -8.232530    3.221967
  C     -2.797718   -8.276053    4.466310
  H     -2.446776   -7.758911    2.379698
  H     -1.568643   -9.231605    2.902381
  H     -2.176829   -8.486869    5.359591
  H     -3.554445   -9.085172    4.379628
  H     -4.323240   -6.934282    5.338097
  H     -3.856190   -6.555593    3.644435

----------------------------
CARTESIAN COORDINATES (A.U.)
----------------------------
  NO LB      ZA    FRAG     MASS         X           Y           Z
   0 V    23.0000    0    50.940   -1.409543   -0.472910   -1.491425
   1 S    16.0000    0    32.060    2.179399    0.890357   -4.095570
   2 S    16.0000    0    32.060    1.130688   -4.367023   -0.566700
   3 S    16.0000    0    32.060   -2.098387    4.082616   -0.639124
   4 S    16.0000    0    32.060   -3.005394   -1.041042    2.883343
   5 O     8.0000    0    15.999   -3.592639   -1.402392   -3.332203
   6 C     6.0000    0    12.011   -0.580670   -5.547832    1.985000
   7 C     6.0000    0    12.011   -2.241360   -4.229012    3.387991
   8 C     6.0000    0    12.011    1.733685    4.186618   -4.166625
   9 C     6.0000    0    12.011    0.021158    5.443762   -2.771050
  10 S    16.0000    0    32.060    0.098543   -8.723863    2.910359
  11 S    16.0000    0    32.060   -3.549839   -5.839706    6.059585
  12 S    16.0000    0    32.060   -0.065106    8.810209   -3.067330
  13 S    16.0000    0    32.060    3.709946    6.096123   -6.153977
  14 C     6.0000    0    12.011   -2.126625   -8.782747    5.434390
  15 C     6.0000    0    12.011    2.534538    9.051527   -5.170781
  16 C     6.0000    0    12.011   -2.474025  -10.779692    7.013938
  17 C     6.0000    0    12.011    3.489914   11.275983   -6.060419
  18 S    16.0000    0    32.060   -0.799834  -13.620486    6.753034
  19 S    16.0000    0    32.060   -4.245963  -10.739856    9.862939
  20 S    16.0000    0    32.060    6.013794   11.472813   -8.282962
  21 S    16.0000    0    32.060    2.234253   14.226178   -5.135528
  22 C     6.0000    0    12.011    5.075988   15.465181   -3.527197
  23 C     6.0000    0    12.011    8.297921   13.104021   -6.198534
  24 C     6.0000    0    12.011    7.343119   15.679830   -5.303514
  25 H     1.0000    0     1.008    5.503482   14.215348   -1.938869
  26 H     1.0000    0     1.008    4.543579   17.314012   -2.773104
  27 H     1.0000    0     1.008    8.884916   16.655382   -4.307933
  28 H     1.0000    0     1.008    6.831697   16.836927   -6.942074
  29 H     1.0000    0     1.008   10.038748   13.296326   -7.297397
  30 H     1.0000    0     1.008    8.680015   11.864147   -4.589869
  31 C     6.0000    0    12.011   -6.576384  -13.071597    8.732811
  32 C     6.0000    0    12.011   -3.613329  -15.557227    6.088636
  33 C     6.0000    0    12.011   -5.286921  -15.639474    8.440103
  34 H     1.0000    0     1.008   -4.623736  -14.662217    4.496978
  35 H     1.0000    0     1.008   -2.964305  -17.445206    5.484705
  36 H     1.0000    0     1.008   -4.113610  -16.037858   10.128160
  37 H     1.0000    0     1.008   -6.716928  -17.168486    8.276297
  38 H     1.0000    0     1.008   -8.169740  -13.103894   10.087542
  39 H     1.0000    0     1.008   -7.287143  -12.388276    6.886984

--------------------------------
INTERNAL COORDINATES (ANGSTROEM)
--------------------------------
 V      0   0   0     0.000000000000     0.00000000     0.00000000
 S      1   0   0     2.454867182875     0.00000000     0.00000000
 S      1   2   0     2.508545898597    86.35020810     0.00000000
 S      1   2   3     2.479449860518    85.99359781   148.23566675
 S      1   2   3     2.482518628435   145.30999998    74.53541325
 O      1   2   3     1.589145634009   108.01512845   255.65215384
 C      3   1   2     1.741807201195    99.63137255   165.71657072
 C      7   3   1     1.345563820085   125.53825031   342.62460870
 C      2   1   3     1.760581854562   101.50760302   202.64494172
 C      9   2   1     1.345067082879   124.64907292     8.36961142
 S      7   3   1     1.787083237637   116.43829192   166.74863728
 S      8   7   3     1.790141867413   116.19435308   184.82649734
 S     10   9   2     1.788915380217   117.49003692   178.37216264
 S      9   2   1     1.794635349690   119.49127663   186.74312628
 C     12   8   7     1.761285586817    96.15812334   355.11477074
 C     14   9   2     1.761664941306    96.95181713   184.83237415
 C     15  12   8     1.359835973798   120.92239966   178.46044910
 C     16  14   9     1.364867077860   122.20811656   177.45466238
 S     17  15  12     1.750377033366   123.40107400   188.78804900
 S     17  15  12     1.775557950558   125.73875769   358.16047866
 S     18  16  14     1.782660475474   123.74323395   359.74615168
 S     18  16  14     1.765879509266   121.83645943   178.04080833
 C     22  18  16     1.848133268082    97.76469411   116.62613684
 C     21  18  16     1.850071846013    97.08763440   243.34312084
 C     23  22  18     1.528329314085   112.44853305    60.44336521
 H     23  22  18     1.093186145978   107.92766038   297.90693950
 H     23  22  18     1.093528098850   106.01057192   182.04467028
 H     25  23  22     1.099876500904   108.81886644   172.58563199
 H     25  23  22     1.095448613081   109.53844082    55.37208063
 H     24  21  18     1.094125688540   106.05765140   177.51325054
 H     24  21  18     1.093629628328   107.75553859    61.72377556
 C     20  17  15     1.844170632241    94.00521277   117.20861280
 C     19  17  15     1.841364773608    94.80890410   242.94998172
 C     33  19  17     1.527945999544   109.20863086   292.54084349
 H     33  19  17     1.104363703623   107.36084809    52.55711684
 H     33  19  17     1.103740781456   107.90847739   169.37710097
 H     34  33  19     1.108105463128   109.70368839   313.50269016
 H     34  33  19     1.111225754115   110.60507547   194.69934816
 H     32  20  17     1.106868605005   108.04060909   191.21222178
 H     32  20  17     1.107382827565   107.13840171   307.95458593

---------------------------
INTERNAL COORDINATES (A.U.)
---------------------------
 V      0   0   0     0.000000000000     0.00000000     0.00000000
 S      1   0   0     4.639026670785     0.00000000     0.00000000
 S      1   2   0     4.740464742720    86.35020810     0.00000000
 S      1   2   3     4.685481199169    85.99359781   148.23566675
 S      1   2   3     4.691280330099   145.30999998    74.53541325
 O      1   2   3     3.003050035193   108.01512845   255.65215384
 C      3   1   2     3.291538588350    99.63137255   165.71657072
 C      7   3   1     2.542747115674   125.53825031   342.62460870
 C      2   1   3     3.327017541473   101.50760302   202.64494172
 C      9   2   1     2.541808418393   124.64907292     8.36961142
 S      7   3   1     3.377097897655   116.43829192   166.74863728
 S      8   7   3     3.382877870277   116.19435308   184.82649734
 S     10   9   2     3.380560145370   117.49003692   178.37216264
 S      9   2   1     3.391369321168   119.49127663   186.74312628
 C     12   8   7     3.328347402707    96.15812334   355.11477074
 C     14   9   2     3.329064278800    96.95181713   184.83237415
 C     15  12   8     2.569717577533   120.92239966   178.46044910
 C     16  14   9     2.579224986361   122.20811656   177.45466238
 S     17  15  12     3.307733224168   123.40107400   188.78804900
 S     17  15  12     3.355318261461   125.73875769   358.16047866
 S     18  16  14     3.368740088412   123.74323395   359.74615168
 S     18  16  14     3.337028658016   121.83645943   178.04080833
 C     22  18  16     3.492465735663    97.76469411   116.62613684
 C     21  18  16     3.496129117042    97.08763440   243.34312084
 C     23  22  18     2.888123846064   112.44853305    60.44336521
 H     23  22  18     2.065822429295   107.92766038   297.90693950
 H     23  22  18     2.066468626574   106.01057192   182.04467028
 H     25  23  22     2.078465367844   108.81886644   172.58563199
 H     25  23  22     2.070097872508   109.53844082    55.37208063
 H     24  21  18     2.067597907429   106.05765140   177.51325054
 H     24  21  18     2.066660489481   107.75553859    61.72377556
 C     20  17  15     3.484977439156    94.00521277   117.20861280
 C     19  17  15     3.479675134769    94.80890410   242.94998172
 C     33  19  17     2.887399486559   109.20863086   292.54084349
 H     33  19  17     2.086944952091   107.36084809    52.55711684
 H     33  19  17     2.085767799792   107.90847739   169.37710097
 H     34  33  19     2.094015852814   109.70368839   313.50269016
 H     34  33  19     2.099912348238   110.60507547   194.69934816
 H     32  20  17     2.091678529695   108.04060909   191.21222178
 H     32  20  17     2.092650269504   107.13840171   307.95458593

---------------------
BASIS SET INFORMATION
---------------------
There are 5 groups of distinct atoms

 Group   1 Type V   : 17s11p5d1f contracted to 17s7p3d1f pattern {11111111111111111/3311111/311/1}
 Group   2 Type S   : 14s9p1d contracted to 5s4p1d pattern {73211/6111/1}
 Group   3 Type O   : 11s6p1d contracted to 5s3p1d pattern {62111/411/1}
 Group   4 Type C   : 11s6p1d contracted to 5s3p1d pattern {62111/411/1}
 Group   5 Type H   : 5s1p contracted to 3s1p pattern {311/1}

Atom   0V    basis set group =>   1
Atom   1S    basis set group =>   2
Atom   2S    basis set group =>   2
Atom   3S    basis set group =>   2
Atom   4S    basis set group =>   2
Atom   5O    basis set group =>   3
Atom   6C    basis set group =>   4
Atom   7C    basis set group =>   4
Atom   8C    basis set group =>   4
Atom   9C    basis set group =>   4
Atom  10S    basis set group =>   2
Atom  11S    basis set group =>   2
Atom  12S    basis set group =>   2
Atom  13S    basis set group =>   2
Atom  14C    basis set group =>   4
Atom  15C    basis set group =>   4
Atom  16C    basis set group =>   4
Atom  17C    basis set group =>   4
Atom  18S    basis set group =>   2
Atom  19S    basis set group =>   2
Atom  20S    basis set group =>   2
Atom  21S    basis set group =>   2
Atom  22C    basis set group =>   4
Atom  23C    basis set group =>   4
Atom  24C    basis set group =>   4
Atom  25H    basis set group =>   5
Atom  26H    basis set group =>   5
Atom  27H    basis set group =>   5
Atom  28H    basis set group =>   5
Atom  29H    basis set group =>   5
Atom  30H    basis set group =>   5
Atom  31C    basis set group =>   4
Atom  32C    basis set group =>   4
Atom  33C    basis set group =>   4
Atom  34H    basis set group =>   5
Atom  35H    basis set group =>   5
Atom  36H    basis set group =>   5
Atom  37H    basis set group =>   5
Atom  38H    basis set group =>   5
Atom  39H    basis set group =>   5

-------------------------
BASIS SET IN INPUT FORMAT
-------------------------

 # Basis set for element : H 
 NewGTO H 
 S 3 
   1      34.0613410000      0.0254393168
   2       5.1235746000      0.1900859340
   3       1.1646626000      0.8524411390
 S 1 
   1       0.3272304100      1.0000000000
 S 1 
   1       0.1030724100      1.0000000000
 P 1 
   1       0.8000000000      1.0000000000
  end;

 # Basis set for element : C 
 NewGTO C 
 S 6 
   1   13575.3496820000      0.0006064601
   2    2035.2333680000      0.0046978985
   3     463.2256235900      0.0243324735
   4     131.2001959800      0.0973999560
   5      42.8530158900      0.3019558443
   6      15.5841857700      0.6623361013
 S 2 
   1       6.2067138500      0.6559530795
   2       2.5764896500      0.3758563390
 S 1 
   1       0.5769633900      1.0000000000
 S 1 
   1       0.2297283100      1.0000000000
 S 1 
   1       0.0951644400      1.0000000000
 P 4 
   1      34.6972322400      0.0113272290
   2       7.9582622800      0.0761696612
   3       2.3780826900      0.3019225154
   4       0.8143320800      0.7278502776
 P 1 
   1       0.2888754700      1.0000000000
 P 1 
   1       0.1005682400      1.0000000000
 D 1 
   1       0.8000000000      1.0000000000
  end;

 # Basis set for element : O 
 NewGTO O 
 S 6 
   1   27032.3826310000      0.0005722654
   2    4052.3871392000      0.0044353333
   3     922.3272271000      0.0230201034
   4     261.2407098900      0.0928224938
   5      85.3546413500      0.2937849971
   6      31.0350352400      0.6740160462
 S 2 
   1      12.2608607300      0.6383993750
   2       4.9987076000      0.3953458663
 S 1 
   1       1.1703108200      1.0000000000
 S 1 
   1       0.4647474100      1.0000000000
 S 1 
   1       0.1850453600      1.0000000000
 P 4 
   1      63.2749548000      0.0120183316
   2      14.6270493800      0.0830054304
   3       4.4501223500      0.3199174388
   4       1.5275799600      0.7071554258
 P 1 
   1       0.5293511800      1.0000000000
 P 1 
   1       0.1747842100      1.0000000000
 D 1 
   1       1.2000000000      1.0000000000
  end;

 # Basis set for element : S 
 NewGTO S 
 S 7 
   1   60700.9281040000      0.0005238013
   2    9102.6106854000      0.0040506304
   3    2071.4166009000      0.0208270003
   4     586.0247682100      0.0814968475
   5     190.5539502100      0.2374911358
   6      67.6303842600      0.4472617145
   7      25.1273069100      0.3489191913
 S 3 
   1     112.5746301000      0.1004556993
   2      34.7955542200      0.4339117282
   3       6.5115556200     -1.2084330582
 S 2 
   1       3.2399032300      0.6749812922
   2       1.5477160900      0.3470879597
 S 1 
   1       0.4054103000      1.0000000000
 S 1 
   1       0.1455065100      1.0000000000
 P 6 
   1     564.3671602700      0.0025564845
   2     133.4262437900      0.0202874255
   3      42.4682711900      0.0927670112
   4      15.6165275800      0.2650208365
   5       6.1093988500      0.4486298663
   6       2.4404160200      0.3596369916
 P 1 
   1       0.8388220100      1.0000000000
 P 1 
   1       0.3128874700      1.0000000000
 P 1 
   1       0.1077010900      1.0000000000
 D 1 
   1       0.5500000000      1.0000000000
  end;

 # Basis set for element : V 
 NewGTO V 
 S 1 
   1  4239814.9912500000      1.0000000000
 S 1 
   1  1695925.9965000001      1.0000000000
 S 1 
   1  678370.3986000001      1.0000000000
 S 1 
   1  271348.1594400000      1.0000000000
 S 1 
   1   40672.0050780000      1.0000000000
 S 1 
   1    9257.0761385000      1.0000000000
 S 1 
   1    2622.7328773000      1.0000000000
 S 1 
   1     858.5948018500      1.0000000000
 S 1 
   1     314.1941865000      1.0000000000
 S 1 
   1     124.4786212700      1.0000000000
 S 1 
   1      50.4693993090      1.0000000000
 S 1 
   1      12.5138469110      1.0000000000
 S 1 
   1       5.3447758082      1.0000000000
 S 1 
   1       1.5755631295      1.0000000000
 S 1 
   1       0.6306903307      1.0000000000
 S 1 
   1       0.0879544416      1.0000000000
 S 1 
   1       0.0342969197      1.0000000000
 P 3 
   1    1450.0319327000     -0.0222847647
   2     343.7504988400     -0.1817959329
   3     110.8252170800     -0.8607412073
 P 3 
   1      41.8224645460     -0.2522537814
   2      17.0880737100     -0.4620379520
   3       7.2613218939     -0.3990010670
 P 1 
   1       2.9458145262      1.0000000000
 P 1 
   1       1.1650209680      1.0000000000
 P 1 
   1       0.4339937839      1.0000000000
 D 3 
   1      27.3603358640      0.0575501019
   2       7.4542765527      0.3023798347
   3       2.4632270217      0.7724212088
 D 1 
   1       0.8249954244      1.0000000000
 D 1 
   1       0.2526297057      1.0000000000
 P 1 
   1       0.1112480000      1.0000000000
 P 1 
   1       0.0363780000      1.0000000000
 F 1 
   1       1.8000000000      1.0000000000
  end;

---------------------------------
AUXILIARY/J BASIS SET INFORMATION
---------------------------------
There are 5 groups of distinct atoms

 Group   1 Type V   : 19s5p5d3f3g contracted to 8s5p5d2f3g pattern {121111111/11111/11111/21/111}
 Group   2 Type S   : 14s5p5d2f1g contracted to 8s4p3d1f1g pattern {71111111/2111/311/2/1}
 Group   3 Type O   : 12s5p4d2f1g contracted to 6s4p3d1f1g pattern {711111/2111/211/2/1}
 Group   4 Type C   : 12s5p4d2f1g contracted to 6s4p3d1f1g pattern {711111/2111/211/2/1}
 Group   5 Type H   : 5s2p1d contracted to 3s1p1d pattern {311/2/1}

Atom   0V    basis set group =>   1
Atom   1S    basis set group =>   2
Atom   2S    basis set group =>   2
Atom   3S    basis set group =>   2
Atom   4S    basis set group =>   2
Atom   5O    basis set group =>   3
Atom   6C    basis set group =>   4
Atom   7C    basis set group =>   4
Atom   8C    basis set group =>   4
Atom   9C    basis set group =>   4
Atom  10S    basis set group =>   2
Atom  11S    basis set group =>   2
Atom  12S    basis set group =>   2
Atom  13S    basis set group =>   2
Atom  14C    basis set group =>   4
Atom  15C    basis set group =>   4
Atom  16C    basis set group =>   4
Atom  17C    basis set group =>   4
Atom  18S    basis set group =>   2
Atom  19S    basis set group =>   2
Atom  20S    basis set group =>   2
Atom  21S    basis set group =>   2
Atom  22C    basis set group =>   4
Atom  23C    basis set group =>   4
Atom  24C    basis set group =>   4
Atom  25H    basis set group =>   5
Atom  26H    basis set group =>   5
Atom  27H    basis set group =>   5
Atom  28H    basis set group =>   5
Atom  29H    basis set group =>   5
Atom  30H    basis set group =>   5
Atom  31C    basis set group =>   4
Atom  32C    basis set group =>   4
Atom  33C    basis set group =>   4
Atom  34H    basis set group =>   5
Atom  35H    basis set group =>   5
Atom  36H    basis set group =>   5
Atom  37H    basis set group =>   5
Atom  38H    basis set group =>   5
Atom  39H    basis set group =>   5

-------------------------------------
AUXILIARY/J BASIS SET IN INPUT FORMAT
-------------------------------------

 # Auxiliary/J basis set for element : H 
 NewAuxJGTO H 
 S 3 
   1      15.6752927000      0.1007184237
   2       3.6063578000      0.3404257499
   3       1.2080016000      0.6491996172
 S 1 
   1       0.4726794000      1.0000000000
 S 1 
   1       0.2018100000      1.0000000000
 P 2 
   1       2.0281365000      0.5596620919
   2       0.5358730000      0.5596620919
 D 1 
   1       2.2165124000      1.0000000000
  end;

 # Auxiliary/J basis set for element : C 
 NewAuxJGTO C 
 S 7 
   1    1861.0916331000      0.0134602335
   2     642.9939764000      0.0299160374
   3     235.1105725000      0.1008649584
   4      90.7028894000      0.2370970548
   5      36.7794552000      0.3924037254
   6      15.6046273000      0.3195862154
   7       6.8907294000      0.0530104441
 S 1 
   1       3.1478850000     -1.0000000000
 S 1 
   1       1.4777287000      1.0000000000
 S 1 
   1       0.7076466000      1.0000000000
 S 1 
   1       0.3430122000      1.0000000000
 S 1 
   1       0.1669453000      1.0000000000
 P 2 
   1      13.5472892000     -0.6769313712
   2       5.4669419000     -0.3779500978
 P 1 
   1       2.1751721000      1.0000000000
 P 1 
   1       0.8582194000      1.0000000000
 P 1 
   1       0.3376720000      1.0000000000
 D 2 
   1       5.9287253000     -0.3533329857
   2       1.9809209000     -0.7456525731
 D 1 
   1       0.8055417000     -1.0000000000
 D 1 
   1       0.3531244000     -1.0000000000
 F 2 
   1       1.6755626000      0.6311076882
   2       0.5997536000      0.4968166032
 G 1 
   1       1.0024600000     -1.0000000000
  end;

 # Auxiliary/J basis set for element : O 
 NewAuxJGTO O 
 S 7 
   1    2876.8216605000      0.0168151159
   2    1004.7443032000      0.0340137548
   3     369.7579954000      0.1194951309
   4     142.9442404000      0.2664627624
   5      57.8366425000      0.4202764046
   6      24.3864983000      0.2765077335
   7      10.6622662000      0.0057008815
 S 1 
   1       4.8070437000     -1.0000000000
 S 1 
   1       2.2210770000      1.0000000000
 S 1 
   1       1.0447795000      1.0000000000
 S 1 
   1       0.4968425000      1.0000000000
 S 1 
   1       0.2371384000      1.0000000000
 P 2 
   1      64.2613382000     -0.2731534179
   2      16.3006076000     -0.8168011598
 P 1 
   1       4.3550542000      1.0000000000
 P 1 
   1       1.2019554000      1.0000000000
 P 1 
   1       0.3354196000      1.0000000000
 D 2 
   1       9.2146611000     -0.4661230638
   2       2.8435251000     -0.6600908911
 D 1 
   1       0.9955759000     -1.0000000000
 D 1 
   1       0.3649441000     -1.0000000000
 F 2 
   1       2.6420115000      0.5931563945
   2       0.7345613000      0.5931563945
 G 1 
   1       1.3931000000     -1.0000000000
  end;

 # Auxiliary/J basis set for element : S 
 NewAuxJGTO S 
 S 7 
   1    7399.0303145000      0.0295137551
   2    2710.1675859000      0.0559686311
   3    1034.3279062000      0.1764696370
   4     410.4645411000      0.3577969368
   5     168.9762502000      0.4299293578
   6      71.9687889000      0.1259148089
   7      31.6172683000     -0.0646025788
 S 1 
   1      14.2796836000      1.0000000000
 S 1 
   1       6.6060948000      1.0000000000
 S 1 
   1       3.1181477000      1.0000000000
 S 1 
   1       1.4954039000     -1.0000000000
 S 1 
   1       0.7254779000      1.0000000000
 S 1 
   1       0.3544216000      1.0000000000
 S 1 
   1       0.1735525000      1.0000000000
 P 2 
   1      12.6998799000      1.4059102813
   2       4.4295784000     -1.2124994202
 P 1 
   1       1.5232889000      1.0000000000
 P 1 
   1       0.5194667000     -1.0000000000
 P 1 
   1       0.1766547000     -1.0000000000
 D 3 
   1      16.8546461000      1.0295742104
   2       5.0810461000     -0.7461553923
   3       1.5102323000      0.8357028005
 D 1 
   1       0.4451331000      1.0000000000
 D 1 
   1       0.1308362000      1.0000000000
 F 2 
   1       1.0809860000      0.5572698934
   2       0.4161474000      0.5572698934
 G 1 
   1       0.6707100000     -1.0000000000
  end;

 # Auxiliary/J basis set for element : V 
 NewAuxJGTO V 
 S 12 
   1   11942.0842430000      0.0459866720
   2    2430.7110193000      0.1744615821
   3     841.0764301000      0.2900402792
   4     494.7508273000      0.1411212903
   5     291.0298903000      0.2660697186
   6     171.1940483000      0.0446365706
   7      59.2366916000     -0.0408204801
   8      34.8451117000      0.1394665381
   9      20.4971240000      0.2164746715
  10      12.0571314000      0.0864266611
  11       7.0924300000     -0.0568501658
  12       4.1720176000     -0.0126212852
 S 1 
   1       2.4541279000      1.0000000000
 S 1 
   1       1.4436046000      1.0000000000
 S 1 
   1       0.8491792000      1.0000000000
 S 1 
   1       0.2938336000      1.0000000000
 S 1 
   1       0.1728433000      1.0000000000
 S 1 
   1       0.1016725000      1.0000000000
 S 1 
   1       0.0598074000      1.0000000000
 P 1 
   1      16.7130979000     -1.0000000000
 P 1 
   1       4.7454037000     -1.0000000000
 P 1 
   1       1.3889998000      1.0000000000
 P 1 
   1       0.4142440000     -1.0000000000
 P 1 
   1       0.1243234000      1.0000000000
 D 1 
   1       7.7143225000      1.0000000000
 D 1 
   1       3.1170731000      1.0000000000
 D 1 
   1       1.2767950000     -1.0000000000
 D 1 
   1       0.5273386000      1.0000000000
 D 1 
   1       0.2184050000      1.0000000000
 F 2 
   1       3.1309344000     -1.0825667766
   2       1.0419780000      0.1809223232
 F 1 
   1       0.3559044000      1.0000000000
 G 1 
   1       8.7130110000      1.0000000000
 G 1 
   1       2.7493872000      1.0000000000
 G 1 
   1       0.8775089000      1.0000000000
  end;



           ************************************************************
           *        Program running with 6 parallel MPI-processes     *
           *              working on a common directory               *
           ************************************************************
------------------------------------------------------------------------------
                           ORCA GTO INTEGRAL CALCULATION
                           -- RI-GTO INTEGRALS CHOSEN --
------------------------------------------------------------------------------
------------------------------------------------------------------------------
                   ___                                                        
                  /   \      - P O W E R E D   B Y -                         
                 /     \                                                     
                 |  |  |   _    _      __       _____    __    __             
                 |  |  |  | |  | |    /  \     |  _  \  |  |  /  |          
                  \  \/   | |  | |   /    \    | | | |  |  | /  /          
                 / \  \   | |__| |  /  /\  \   | |_| |  |  |/  /          
                |  |  |   |  __  | /  /__\  \  |    /   |      \           
                |  |  |   | |  | | |   __   |  |    \   |  |\   \          
                \     /   | |  | | |  |  |  |  | |\  \  |  | \   \       
                 \___/    |_|  |_| |__|  |__|  |_| \__\ |__|  \__/        
                                                                              
                      - O R C A' S   B I G   F R I E N D -                    
                                      &                                       
                       - I N T E G R A L  F E E D E R -                       
                                                                              
 v1 FN, 2020, v2 2021                                                         
------------------------------------------------------------------------------


Reading SHARK input file input_36.SHARKINP.tmp ... ok
----------------------
SHARK INTEGRAL PACKAGE
----------------------

Number of atoms                             ...     40
Number of basis functions                   ...    681
Number of shells                            ...    331
Maximum angular momentum                    ...      3
Integral batch strategy                     ... SHARK/LIBINT Hybrid
RI-J (if used) integral strategy            ... SPLIT-RIJ (Revised 2003 algorithm where possible)
Printlevel                                  ...      1
Contraction scheme used                     ... SEGMENTED contraction
Coulomb Range Separation                    ... NOT USED
Exchange Range Separation                   ... NOT USED
Finite Nucleus Model                        ... NOT USED
Auxiliary Coulomb fitting basis             ... AVAILABLE
   # of basis functions in Aux-J            ...   1568
   # of shells in Aux-J                     ...    512
   Maximum angular momentum in Aux-J        ...      4
Auxiliary J/K fitting basis                 ... NOT available
Auxiliary Correlation fitting basis         ... NOT available
Auxiliary 'external' fitting basis          ... NOT available
Integral threshold                          ...     1.000000e-10
Primitive cut-off                           ...     1.000000e-11
Primitive pair pre-selection threshold      ...     1.000000e-11

Calculating pre-screening integrals         ... done (  0.1 sec) Dimension = 331
Organizing shell pair data                  ... done (  0.1 sec)
Shell pair information
Total number of shell pairs                 ...     54946
Shell pairs after pre-screening             ...     22759
Total number of primitive shell pairs       ...    221635
Primitive shell pairs kept                  ...     55575
          la=0 lb=0:   6437 shell pairs
          la=1 lb=0:   9117 shell pairs
          la=1 lb=1:   3205 shell pairs
          la=2 lb=0:   2134 shell pairs
          la=2 lb=1:   1546 shell pairs
          la=2 lb=2:    196 shell pairs
          la=3 lb=0:     56 shell pairs
          la=3 lb=1:     55 shell pairs
          la=3 lb=2:     12 shell pairs
          la=3 lb=3:      1 shell pairs

Calculating one electron integrals          ... done (  0.0 sec)
Calculating RI/J V-Matrix + Cholesky decomp.... done (  0.2 sec)
Calculating Nuclear repulsion               ... done (  0.0 sec) ENN=   5074.305790230255 Eh

SHARK setup successfully completed in   0.8 seconds

Maximum memory used throughout the entire GTOINT-calculation: 41.9 MB


           ************************************************************
           *        Program running with 6 parallel MPI-processes     *
           *              working on a common directory               *
           ************************************************************
-------------------------------------------------------------------------------
                                 ORCA SCF
-------------------------------------------------------------------------------

------------
SCF SETTINGS
------------
Hamiltonian:
 Density Functional     Method          .... DFT(GTOs)
 Exchange Functional    Exchange        .... B88
   X-Alpha parameter    XAlpha          ....  0.666667
   Becke's b parameter  XBeta           ....  0.004200
 Correlation Functional Correlation     .... LYP
 LDA part of GGA corr.  LDAOpt          .... VWN-5
 Gradients option       PostSCFGGA      .... off
 Hybrid DFT is turned on
   Fraction HF Exchange ScalHFX         ....  0.200000
   Scaling of DF-GGA-X  ScalDFX         ....  0.720000
   Scaling of DF-GGA-C  ScalDFC         ....  0.810000
   Scaling of DF-LDA-C  ScalLDAC        ....  1.000000
   Perturbative correction              ....  0.000000
   Density functional embedding theory  .... OFF
   NL short-range parameter             ....  4.800000
 RI-approximation to the Coulomb term is turned on
   Number of AuxJ basis functions       .... 1568
   RIJ-COSX (HFX calculated with COS-X)).... on


General Settings:
 Integral files         IntName         .... input_36
 Hartree-Fock type      HFTyp           .... UHF
 Total Charge           Charge          ....   -2
 Multiplicity           Mult            ....    2
 Number of Electrons    NEL             ....  321
 Basis Dimension        Dim             ....  681
 Nuclear Repulsion      ENuc            ....   5074.3057902303 Eh

Convergence Acceleration:
 DIIS                   CNVDIIS         .... on
   Start iteration      DIISMaxIt       ....    12
   Startup error        DIISStart       ....  0.200000
   # of expansion vecs  DIISMaxEq       ....     5
   Bias factor          DIISBfac        ....   1.050
   Max. coefficient     DIISMaxC        ....  10.000
 Trust-Rad. Augm. Hess. CNVTRAH         .... auto
   Auto Start mean grad. ratio tolernc. ....  1.125000
   Auto Start start iteration           ....    20
   Auto Start num. interpolation iter.  ....    10
   Max. Number of Micro iterations      ....    16
   Max. Number of Macro iterations      .... Maxiter - #DIIS iter
   Number of Davidson start vectors     ....     2
   Converg. threshold I  (grad. norm)   ....   5.000e-05
   Converg. threshold II (energy diff.) ....   1.000e-06
   Grad. Scal. Fac. for Micro threshold ....   0.100
   Minimum threshold for Micro iter.    ....   0.010
   NR start threshold (gradient norm)   ....   0.001
   Initial trust radius                 ....   0.400
   Minimum AH scaling param. (alpha)    ....   1.000
   Maximum AH scaling param. (alpha)    .... 1000.000
   Orbital update algorithm             .... Taylor
   White noise on init. David. guess    .... on
   Maximum white noise                  ....   0.010
   Quad. conv. algorithm                .... NR
 SOSCF                  CNVSOSCF        .... off
 Level Shifting         CNVShift        .... on
   Level shift para.    LevelShift      ....    0.2500
   Turn off err/grad.   ShiftErr        ....    0.0010
 Zerner damping         CNVZerner       .... off
 Static damping         CNVDamp         .... on
   Fraction old density DampFac         ....    0.7000
   Max. Damping (<1)    DampMax         ....    0.9800
   Min. Damping (>=0)   DampMin         ....    0.0000
   Turn off err/grad.   DampErr         ....    0.1000
 Fernandez-Rico         CNVRico         .... off

SCF Procedure:
 Maximum # iterations   MaxIter         ....   125
 SCF integral mode      SCFMode         .... Direct
   Integral package                     .... SHARK and LIBINT hybrid scheme
 Reset frequency        DirectResetFreq ....    20
 Integral Threshold     Thresh          ....  1.000e-10 Eh
 Primitive CutOff       TCut            ....  1.000e-11 Eh

Convergence Tolerance:
 Convergence Check Mode ConvCheckMode   .... Total+1el-Energy
 Convergence forced     ConvForced      .... 0
 Energy Change          TolE            ....  1.000e-06 Eh
 1-El. energy change                    ....  1.000e-03 Eh
 DIIS Error             TolErr          ....  1.000e-06


Diagonalization of the overlap matrix:
Smallest eigenvalue                        ... 7.325e-05
Time for diagonalization                   ...    0.221 sec
Threshold for overlap eigenvalues          ... 1.000e-08
Number of eigenvalues below threshold      ... 0
Time for construction of square roots      ...    0.159 sec
Total time needed                          ...    0.384 sec

Time for model grid setup =    0.390 sec

------------------------------
INITIAL GUESS: MODEL POTENTIAL
------------------------------
Loading Hartree-Fock densities                     ... done
Calculating cut-offs                               ... done
Initializing the effective Hamiltonian             ... done
Setting up the integral package (SHARK)            ... done
Starting the Coulomb interaction                   ... done (   0.4 sec)
Reading the grid                                   ... done
Mapping shells                                     ... done
Starting the XC term evaluation                    ... done (   0.2 sec)
  promolecular density results
     # of electrons  =    318.996219695
     EX              =   -428.294024394
     EC              =    -12.542173079
     EX+EC           =   -440.836197473
Transforming the Hamiltonian                       ... done (   0.2 sec)
Diagonalizing the Hamiltonian                      ... done (   0.2 sec)
Back transforming the eigenvectors                 ... done (   0.1 sec)
Now organizing SCF variables                       ... done
                      ------------------
                      INITIAL GUESS DONE (   1.5 sec)
                      ------------------
-------------------
DFT GRID GENERATION
-------------------

General Integration Accuracy     IntAcc      ... 4.388
Radial Grid Type                 RadialGrid  ... OptM3 with GC (2021)
Angular Grid (max. ang.)         AngularGrid ... 4 (Lebedev-302)
Angular grid pruning method      GridPruning ... 4 (adaptive)
Weight generation scheme         WeightScheme... Becke
Basis function cutoff            BFCut       ... 1.0000e-10
Integration weight cutoff        WCut        ... 1.0000e-14
Angular grids for H and He will be reduced by one unit
Partially contracted basis set               ... off
Rotationally invariant grid construction     ... off

Total number of grid points                  ...   237197
Total number of batches                      ...     3726
Average number of points per batch           ...       63
Average number of grid points per atom       ...     5930
Time for grid setup =    1.922 sec

--------------------
COSX GRID GENERATION
--------------------

GRIDX 1
-------
General Integration Accuracy     IntAcc      ... 3.816
Radial Grid Type                 RadialGrid  ... OptM3 with GC (2021)
Angular Grid (max. ang.)         AngularGrid ... 1 (Lebedev-50)
Angular grid pruning method      GridPruning ... 4 (adaptive)
Weight generation scheme         WeightScheme... Becke
Basis function cutoff            BFCut       ... 1.0000e-10
Integration weight cutoff        WCut        ... 1.0000e-14
Angular grids for H and He will be reduced by one unit
Partially contracted basis set               ... on
Rotationally invariant grid construction     ... off

Total number of grid points                  ...    29143
Total number of batches                      ...      479
Average number of points per batch           ...       60
Average number of grid points per atom       ...      729
UseSFitting                                  ... on

GRIDX 2
-------
General Integration Accuracy     IntAcc      ... 4.020
Radial Grid Type                 RadialGrid  ... OptM3 with GC (2021)
Angular Grid (max. ang.)         AngularGrid ... 2 (Lebedev-110)
Angular grid pruning method      GridPruning ... 4 (adaptive)
Weight generation scheme         WeightScheme... Becke
Basis function cutoff            BFCut       ... 1.0000e-10
Integration weight cutoff        WCut        ... 1.0000e-14
Angular grids for H and He will be reduced by one unit
Partially contracted basis set               ... on
Rotationally invariant grid construction     ... off

Total number of grid points                  ...    63999
Total number of batches                      ...     1019
Average number of points per batch           ...       62
Average number of grid points per atom       ...     1600
UseSFitting                                  ... on

GRIDX 3
-------
General Integration Accuracy     IntAcc      ... 4.338
Radial Grid Type                 RadialGrid  ... OptM3 with GC (2021)
Angular Grid (max. ang.)         AngularGrid ... 3 (Lebedev-194)
Angular grid pruning method      GridPruning ... 4 (adaptive)
Weight generation scheme         WeightScheme... Becke
Basis function cutoff            BFCut       ... 1.0000e-10
Integration weight cutoff        WCut        ... 1.0000e-14
Angular grids for H and He will be reduced by one unit
Partially contracted basis set               ... on
Rotationally invariant grid construction     ... off

Total number of grid points                  ...   147200
Total number of batches                      ...     2322
Average number of points per batch           ...       63
Average number of grid points per atom       ...     3680
UseSFitting                                  ... on

Time for X-Grid setup             =    2.177 sec

--------------
SCF ITERATIONS
--------------
ITER       Energy         Delta-E        Max-DP      RMS-DP      [F,P]     Damp
               ***  Starting incremental Fock matrix formation  ***
  0  -6336.8600945870   0.000000000000 0.05622864  0.00068194  0.2263789 0.7000
  1  -6337.1972048132  -0.337110226204 0.08826688  0.00061744  0.1558220 0.7000
                               ***Turning on DIIS***
  2  -6337.3669353986  -0.169730585339 0.03741673  0.00032780  0.1090134 0.7000
  3  -6337.4592358757  -0.092300477109 0.04353777  0.00058066  0.0771528 0.0000
  4  -6337.6837016095  -0.224465733827 0.06569527  0.00033467  0.0114301 0.0000
  5  -6337.6895522555  -0.005850646018 0.00914112  0.00008136  0.0091324 0.0000
  6  -6337.6907660017  -0.001213746170 0.00314403  0.00003789  0.0029785 0.0000
  7  -6337.6911384482  -0.000372446544 0.00158129  0.00002240  0.0012940 0.0000
  8  -6337.6913047354  -0.000166287200 0.00195468  0.00001853  0.0014876 0.0000
  9  -6337.6914148926  -0.000110157114 0.00512104  0.00004188  0.0006831 0.0000
               *** Restarting incremental Fock matrix formation ***
                                   *** Resetting DIIS ***
 10  -6337.6914872950  -0.000072402485 0.00231640  0.00001687  0.0007016 0.0000
 11  -6337.6914562136   0.000031081470 0.00051453  0.00000408  0.0020115 0.0000
 12  -6337.6915007729  -0.000044559358 0.00079803  0.00000562  0.0007268 0.0000
 13  -6337.6915093030  -0.000008530067 0.00085038  0.00000478  0.0002077 0.0000
 14  -6337.6915119909  -0.000002687960 0.00028953  0.00000275  0.0001368 0.0000
 15  -6337.6915134545  -0.000001463555 0.00013728  0.00000140  0.0001080 0.0000
 16  -6337.6915137576  -0.000000303048 0.00010751  0.00000107  0.0000520 0.0000
                 **** Energy Check signals convergence ****

               *****************************************************
               *                     SUCCESS                       *
               *           SCF CONVERGED AFTER  17 CYCLES          *
               *****************************************************

Old exchange energy                            =    -85.938430366 Eh
New exchange energy                            =    -85.938404799 Eh
Exchange energy change after final integration =      0.000025567 Eh
Total energy after final integration           =  -6337.691488454 Eh
Final COS-X integration done in                =    28.437 sec

----------------
TOTAL SCF ENERGY
----------------

Total Energy       :        -6337.69148845 Eh         -172457.35296 eV

Components:
Nuclear Repulsion  :         5074.30579023 Eh          138078.88035 eV
Electronic Energy  :       -11411.99727868 Eh         -310536.23331 eV
One Electron Energy:       -18919.05850513 Eh         -514813.75455 eV
Two Electron Energy:         7507.06122644 Eh          204277.52124 eV
Max COSX asymmetry :            0.00000175 Eh               0.00005 eV

Virial components:
Potential Energy   :       -12659.20929013 Eh         -344474.59753 eV
Kinetic Energy     :         6321.51780168 Eh          172017.24457 eV
Virial Ratio       :            2.00255851


DFT components:
N(Alpha)           :      160.999871381915 electrons
N(Beta)            :      159.999872032183 electrons
N(Total)           :      320.999743414098 electrons
E(X)               :     -341.498363121685 Eh       
E(C)               :      -14.726038055955 Eh       
E(XC)              :     -356.224401177639 Eh       
DFET-embed. en.    :        0.000000000000 Eh       

---------------
SCF CONVERGENCE
---------------

  Last Energy change         ...   -2.6325e-07  Tolerance :   1.0000e-06
  Last MAX-Density change    ...    0.0000e+00  Tolerance :   1.0000e-05
  Last RMS-Density change    ...    0.0000e+00  Tolerance :   1.0000e-06
  Last DIIS Error            ...    3.0835e-05  Tolerance :   1.0000e-06

             **** THE GBW FILE WAS UPDATED (input_36.gbw) ****
             **** DENSITY input_36.scfp WAS UPDATED ****
             **** ENERGY FILE WAS UPDATED (input_36.en.tmp) ****
----------------------
UHF SPIN CONTAMINATION
----------------------

Warning: in a DFT calculation there is little theoretical justification to 
         calculate <S**2> as in Hartree-Fock theory. We will do it anyways
         but you should keep in mind that the values have only limited relevance

Expectation value of <S**2>     :     0.765830
Ideal value S*(S+1) for S=0.5   :     0.750000
Deviation                       :     0.015830

             **** THE GBW FILE WAS UPDATED (input_36.gbw) ****
             **** DENSITY input_36.scfp WAS UPDATED ****
----------------
ORBITAL ENERGIES
----------------
                 SPIN UP ORBITALS
  NO   OCC          E(Eh)            E(eV) 
   0   1.0000    -196.675845     -5351.8218 
   1   1.0000     -88.733046     -2414.5489 
   2   1.0000     -88.731600     -2414.5096 
   3   1.0000     -88.731359     -2414.5030 
   4   1.0000     -88.731072     -2414.4952 
   5   1.0000     -88.730117     -2414.4692 
   6   1.0000     -88.729494     -2414.4523 
   7   1.0000     -88.728887     -2414.4358 
   8   1.0000     -88.726863     -2414.3807 
   9   1.0000     -88.640801     -2412.0388 
  10   1.0000     -88.639310     -2411.9983 
  11   1.0000     -88.638008     -2411.9628 
  12   1.0000     -88.636760     -2411.9289 
  13   1.0000     -22.051124      -600.0416 
  14   1.0000     -18.890701      -514.0421 
  15   1.0000     -18.557569      -504.9771 
  16   1.0000     -18.552418      -504.8370 
  17   1.0000     -18.552300      -504.8337 
  18   1.0000     -10.076311      -274.1904 
  19   1.0000     -10.075227      -274.1609 
  20   1.0000     -10.062981      -273.8276 
  21   1.0000     -10.062397      -273.8117 
  22   1.0000     -10.061957      -273.7998 
  23   1.0000     -10.060635      -273.7638 
  24   1.0000     -10.049839      -273.4700 
  25   1.0000     -10.048104      -273.4228 
  26   1.0000     -10.047406      -273.4038 
  27   1.0000     -10.043224      -273.2900 
  28   1.0000     -10.017835      -272.5991 
  29   1.0000     -10.016961      -272.5754 
  30   1.0000     -10.015422      -272.5335 
  31   1.0000     -10.014622      -272.5117 
  32   1.0000      -7.786651      -211.8856 
  33   1.0000      -7.785075      -211.8427 
  34   1.0000      -7.784795      -211.8350 
  35   1.0000      -7.784381      -211.8238 
  36   1.0000      -7.783741      -211.8064 
  37   1.0000      -7.783585      -211.8021 
  38   1.0000      -7.782446      -211.7711 
  39   1.0000      -7.781712      -211.7512 
  40   1.0000      -7.695080      -209.3938 
  41   1.0000      -7.693961      -209.3633 
  42   1.0000      -7.692262      -209.3171 
  43   1.0000      -7.691329      -209.2917 
  44   1.0000      -5.751589      -156.5087 
  45   1.0000      -5.750001      -156.4655 
  46   1.0000      -5.749817      -156.4605 
  47   1.0000      -5.749456      -156.4507 
  48   1.0000      -5.748504      -156.4247 
  49   1.0000      -5.748473      -156.4239 
  50   1.0000      -5.748291      -156.4190 
  51   1.0000      -5.747325      -156.3927 
  52   1.0000      -5.746617      -156.3734 
  53   1.0000      -5.746464      -156.3692 
  54   1.0000      -5.745551      -156.3444 
  55   1.0000      -5.745309      -156.3378 
  56   1.0000      -5.744933      -156.3276 
  57   1.0000      -5.744118      -156.3054 
  58   1.0000      -5.743368      -156.2850 
  59   1.0000      -5.742996      -156.2749 
  60   1.0000      -5.741404      -156.2315 
  61   1.0000      -5.740552      -156.2084 
  62   1.0000      -5.740092      -156.1958 
  63   1.0000      -5.739864      -156.1896 
  64   1.0000      -5.739417      -156.1775 
  65   1.0000      -5.738373      -156.1491 
  66   1.0000      -5.738255      -156.1459 
  67   1.0000      -5.736394      -156.0952 
  68   1.0000      -5.660416      -154.0277 
  69   1.0000      -5.659157      -153.9935 
  70   1.0000      -5.657555      -153.9499 
  71   1.0000      -5.656496      -153.9211 
  72   1.0000      -5.653710      -153.8453 
  73   1.0000      -5.652617      -153.8155 
  74   1.0000      -5.652422      -153.8102 
  75   1.0000      -5.651313      -153.7800 
  76   1.0000      -5.650963      -153.7705 
  77   1.0000      -5.650102      -153.7471 
  78   1.0000      -5.649574      -153.7327 
  79   1.0000      -5.648652      -153.7076 
  80   1.0000      -2.444598       -66.5209 
  81   1.0000      -1.485822       -40.4313 
  82   1.0000      -1.474196       -40.1149 
  83   1.0000      -1.473341       -40.0916 
  84   1.0000      -0.715176       -19.4609 
  85   1.0000      -0.711969       -19.3736 
  86   1.0000      -0.687692       -18.7131 
  87   1.0000      -0.687279       -18.7018 
  88   1.0000      -0.650194       -17.6927 
  89   1.0000      -0.632480       -17.2107 
  90   1.0000      -0.630769       -17.1641 
  91   1.0000      -0.616685       -16.7808 
  92   1.0000      -0.613323       -16.6894 
  93   1.0000      -0.577038       -15.7020 
  94   1.0000      -0.576935       -15.6992 
  95   1.0000      -0.573840       -15.6150 
  96   1.0000      -0.572372       -15.5750 
  97   1.0000      -0.496384       -13.5073 
  98   1.0000      -0.494765       -13.4632 
  99   1.0000      -0.492204       -13.3936 
 100   1.0000      -0.488824       -13.3016 
 101   1.0000      -0.479155       -13.0385 
 102   1.0000      -0.474373       -12.9083 
 103   1.0000      -0.448500       -12.2043 
 104   1.0000      -0.447019       -12.1640 
 105   1.0000      -0.416952       -11.3458 
 106   1.0000      -0.411519       -11.1980 
 107   1.0000      -0.356919        -9.7123 
 108   1.0000      -0.356516        -9.7013 
 109   1.0000      -0.330258        -8.9868 
 110   1.0000      -0.328607        -8.9419 
 111   1.0000      -0.318447        -8.6654 
 112   1.0000      -0.313244        -8.5238 
 113   1.0000      -0.302689        -8.2366 
 114   1.0000      -0.296743        -8.0748 
 115   1.0000      -0.291228        -7.9247 
 116   1.0000      -0.285403        -7.7662 
 117   1.0000      -0.257661        -7.0113 
 118   1.0000      -0.254295        -6.9197 
 119   1.0000      -0.253967        -6.9108 
 120   1.0000      -0.242968        -6.6115 
 121   1.0000      -0.239578        -6.5192 
 122   1.0000      -0.236629        -6.4390 
 123   1.0000      -0.231856        -6.3091 
 124   1.0000      -0.230564        -6.2740 
 125   1.0000      -0.221304        -6.0220 
 126   1.0000      -0.219672        -5.9776 
 127   1.0000      -0.212679        -5.7873 
 128   1.0000      -0.211309        -5.7500 
 129   1.0000      -0.191805        -5.2193 
 130   1.0000      -0.189019        -5.1435 
 131   1.0000      -0.188803        -5.1376 
 132   1.0000      -0.184492        -5.0203 
 133   1.0000      -0.179743        -4.8911 
 134   1.0000      -0.159741        -4.3468 
 135   1.0000      -0.151310        -4.1174 
 136   1.0000      -0.147738        -4.0202 
 137   1.0000      -0.134990        -3.6733 
 138   1.0000      -0.134526        -3.6606 
 139   1.0000      -0.131767        -3.5856 
 140   1.0000      -0.124566        -3.3896 
 141   1.0000      -0.121964        -3.3188 
 142   1.0000      -0.113657        -3.0928 
 143   1.0000      -0.108880        -2.9628 
 144   1.0000      -0.100522        -2.7353 
 145   1.0000      -0.100173        -2.7258 
 146   1.0000      -0.098660        -2.6847 
 147   1.0000      -0.097803        -2.6613 
 148   1.0000      -0.073929        -2.0117 
 149   1.0000      -0.064708        -1.7608 
 150   1.0000      -0.056122        -1.5271 
 151   1.0000      -0.051472        -1.4006 
 152   1.0000      -0.045537        -1.2391 
 153   1.0000      -0.038749        -1.0544 
 154   1.0000      -0.036446        -0.9917 
 155   1.0000      -0.032525        -0.8851 
 156   1.0000      -0.024849        -0.6762 
 157   1.0000      -0.019472        -0.5299 
 158   1.0000      -0.014247        -0.3877 
 159   1.0000       0.021462         0.5840 
 160   1.0000       0.042042         1.1440 
 161   0.0000       0.133699         3.6381 
 162   0.0000       0.136244         3.7074 
 163   0.0000       0.163530         4.4499 
 164   0.0000       0.166238         4.5236 
 165   0.0000       0.167898         4.5687 
 166   0.0000       0.171573         4.6687 
 167   0.0000       0.174372         4.7449 
 168   0.0000       0.175589         4.7780 
 169   0.0000       0.176353         4.7988 
 170   0.0000       0.177398         4.8272 
 171   0.0000       0.178093         4.8462 
 172   0.0000       0.190896         5.1945 
 173   0.0000       0.191666         5.2155 
 174   0.0000       0.198377         5.3981 
 175   0.0000       0.200296         5.4503 
 176   0.0000       0.202616         5.5135 
 177   0.0000       0.205238         5.5848 
 178   0.0000       0.208365         5.6699 
 179   0.0000       0.211853         5.7648 
 180   0.0000       0.213173         5.8007 
 181   0.0000       0.213905         5.8207 
 182   0.0000       0.216016         5.8781 
 183   0.0000       0.221217         6.0196 
 184   0.0000       0.224743         6.1156 
 185   0.0000       0.229166         6.2359 
 186   0.0000       0.229596         6.2476 
 187   0.0000       0.237622         6.4660 
 188   0.0000       0.238529         6.4907 
 189   0.0000       0.242929         6.6104 
 190   0.0000       0.248244         6.7551 
 191   0.0000       0.249754         6.7961 
 192   0.0000       0.250613         6.8195 
 193   0.0000       0.260216         7.0808 
 194   0.0000       0.263376         7.1668 
 195   0.0000       0.269049         7.3212 
 196   0.0000       0.273009         7.4290 
 197   0.0000       0.273863         7.4522 
 198   0.0000       0.275078         7.4853 
 199   0.0000       0.276127         7.5138 
 200   0.0000       0.284542         7.7428 
 201   0.0000       0.286907         7.8071 
 202   0.0000       0.301617         8.2074 
 203   0.0000       0.310762         8.4563 
 204   0.0000       0.312521         8.5041 
 205   0.0000       0.326362         8.8808 
 206   0.0000       0.327966         8.9244 
 207   0.0000       0.330093         8.9823 
 208   0.0000       0.340026         9.2526 
 209   0.0000       0.344125         9.3641 
 210   0.0000       0.348927         9.4948 
 211   0.0000       0.350591         9.5401 
 212   0.0000       0.355012         9.6604 
 213   0.0000       0.357070         9.7164 
 214   0.0000       0.363075         9.8798 
 215   0.0000       0.374140        10.1809 
 216   0.0000       0.375768        10.2252 
 217   0.0000       0.382829        10.4173 
 218   0.0000       0.383782        10.4433 
 219   0.0000       0.384239        10.4557 
 220   0.0000       0.388958        10.5841 
 221   0.0000       0.392799        10.6886 
 222   0.0000       0.395458        10.7610 
 223   0.0000       0.402084        10.9413 
 224   0.0000       0.402891        10.9632 
 225   0.0000       0.405838        11.0434 
 226   0.0000       0.408806        11.1242 
 227   0.0000       0.411208        11.1896 
 228   0.0000       0.417639        11.3645 
 229   0.0000       0.423411        11.5216 
 230   0.0000       0.429148        11.6777 
 231   0.0000       0.431287        11.7359 
 232   0.0000       0.435074        11.8390 
 233   0.0000       0.436372        11.8743 
 234   0.0000       0.437351        11.9009 
 235   0.0000       0.442717        12.0469 
 236   0.0000       0.449308        12.2263 
 237   0.0000       0.455271        12.3886 
 238   0.0000       0.456763        12.4292 
 239   0.0000       0.465551        12.6683 
 240   0.0000       0.472072        12.8457 
 241   0.0000       0.472767        12.8646 
 242   0.0000       0.474796        12.9199 
 243   0.0000       0.477934        13.0052 
 244   0.0000       0.480589        13.0775 
 245   0.0000       0.482333        13.1249 
 246   0.0000       0.484035        13.1713 
 247   0.0000       0.487072        13.2539 
 248   0.0000       0.491462        13.3734 
 249   0.0000       0.492921        13.4131 
 250   0.0000       0.496372        13.5070 
 251   0.0000       0.503460        13.6998 
 252   0.0000       0.505591        13.7578 
 253   0.0000       0.507199        13.8016 
 254   0.0000       0.510667        13.8960 
 255   0.0000       0.514089        13.9891 
 256   0.0000       0.515624        14.0309 
 257   0.0000       0.518279        14.1031 
 258   0.0000       0.521922        14.2022 
 259   0.0000       0.524254        14.2657 
 260   0.0000       0.525679        14.3045 
 261   0.0000       0.526136        14.3169 
 262   0.0000       0.527690        14.3592 
 263   0.0000       0.528864        14.3911 
 264   0.0000       0.531022        14.4498 
 265   0.0000       0.532839        14.4993 
 266   0.0000       0.538932        14.6651 
 267   0.0000       0.543742        14.7960 
 268   0.0000       0.546123        14.8608 
 269   0.0000       0.550299        14.9744 
 270   0.0000       0.552135        15.0243 
 271   0.0000       0.554327        15.0840 
 272   0.0000       0.557960        15.1829 
 273   0.0000       0.561677        15.2840 
 274   0.0000       0.571512        15.5516 
 275   0.0000       0.571972        15.5641 
 276   0.0000       0.573318        15.6008 
 277   0.0000       0.579378        15.7657 
 278   0.0000       0.580406        15.7937 
 279   0.0000       0.582211        15.8428 
 280   0.0000       0.585665        15.9368 
 281   0.0000       0.587866        15.9967 
 282   0.0000       0.594472        16.1764 
 283   0.0000       0.596005        16.2181 
 284   0.0000       0.597416        16.2565 
 285   0.0000       0.604461        16.4482 
 286   0.0000       0.606951        16.5160 
 287   0.0000       0.610884        16.6230 
 288   0.0000       0.614649        16.7254 
 289   0.0000       0.619432        16.8556 
 290   0.0000       0.620418        16.8824 
 291   0.0000       0.623110        16.9557 
 292   0.0000       0.626856        17.0576 
 293   0.0000       0.633552        17.2398 
 294   0.0000       0.635635        17.2965 
 295   0.0000       0.639039        17.3891 
 296   0.0000       0.641029        17.4433 
 297   0.0000       0.647924        17.6309 
 298   0.0000       0.654623        17.8132 
 299   0.0000       0.655970        17.8499 
 300   0.0000       0.662086        18.0163 
 301   0.0000       0.672102        18.2888 
 302   0.0000       0.687483        18.7074 
 303   0.0000       0.701523        19.0894 
 304   0.0000       0.708616        19.2824 
 305   0.0000       0.714747        19.4492 
 306   0.0000       0.720213        19.5980 
 307   0.0000       0.727599        19.7990 
 308   0.0000       0.730197        19.8697 
 309   0.0000       0.753379        20.5005 
 310   0.0000       0.756995        20.5989 
 311   0.0000       0.760596        20.6969 
 312   0.0000       0.762010        20.7354 
 313   0.0000       0.768693        20.9172 
 314   0.0000       0.772039        21.0082 
 315   0.0000       0.780499        21.2385 
 316   0.0000       0.789212        21.4756 
 317   0.0000       0.790676        21.5154 
 318   0.0000       0.808453        21.9991 
 319   0.0000       0.816930        22.2298 
 320   0.0000       0.825561        22.4647 
 321   0.0000       0.827588        22.5198 
 322   0.0000       0.830632        22.6027 
 323   0.0000       0.835803        22.7434 
 324   0.0000       0.847974        23.0745 
 325   0.0000       0.848320        23.0840 
 326   0.0000       0.858452        23.3597 
 327   0.0000       0.863866        23.5070 
 328   0.0000       0.866390        23.5757 
 329   0.0000       0.872224        23.7344 
 330   0.0000       0.874575        23.7984 
 331   0.0000       0.875848        23.8330 
 332   0.0000       0.879730        23.9387 
 333   0.0000       0.882600        24.0168 
 334   0.0000       0.892499        24.2861 
 335   0.0000       0.897042        24.4098 
 336   0.0000       0.900739        24.5104 
 337   0.0000       0.906414        24.6648 
 338   0.0000       0.912616        24.8335 
 339   0.0000       0.921431        25.0734 
 340   0.0000       0.927456        25.2373 
 341   0.0000       0.937170        25.5017 
 342   0.0000       0.939560        25.5667 
 343   0.0000       0.941855        25.6292 
 344   0.0000       0.944547        25.7024 
 345   0.0000       0.948698        25.8154 
 346   0.0000       0.953820        25.9548 
 347   0.0000       0.957046        26.0425 
 348   0.0000       0.979659        26.6579 
 349   0.0000       0.980590        26.6832 
 350   0.0000       0.986280        26.8380 
 351   0.0000       0.991270        26.9738 
 352   0.0000       1.005948        27.3732 
 353   0.0000       1.010954        27.5094 
 354   0.0000       1.014089        27.5948 
 355   0.0000       1.016543        27.6615 
 356   0.0000       1.021776        27.8039 
 357   0.0000       1.022177        27.8149 
 358   0.0000       1.032915        28.1070 
 359   0.0000       1.035587        28.1797 
 360   0.0000       1.036913        28.2158 
 361   0.0000       1.042687        28.3729 
 362   0.0000       1.045647        28.4535 
 363   0.0000       1.052778        28.6476 
 364   0.0000       1.062609        28.9151 
 365   0.0000       1.065465        28.9928 
 366   0.0000       1.068276        29.0693 
 367   0.0000       1.072362        29.1805 
 368   0.0000       1.075010        29.2525 
 369   0.0000       1.083272        29.4773 
 370   0.0000       1.087008        29.5790 
 371   0.0000       1.100867        29.9561 
 372   0.0000       1.103956        30.0402 
 373   0.0000       1.107875        30.1468 
 374   0.0000       1.112126        30.2625 
 375   0.0000       1.115642        30.3582 
 376   0.0000       1.121449        30.5162 
 377   0.0000       1.123767        30.5792 
 378   0.0000       1.137206        30.9450 
 379   0.0000       1.144932        31.1552 
 380   0.0000       1.147740        31.2316 
 381   0.0000       1.159498        31.5515 
 382   0.0000       1.162322        31.6284 
 383   0.0000       1.165604        31.7177 
 384   0.0000       1.169163        31.8145 
 385   0.0000       1.200807        32.6756 
 386   0.0000       1.206919        32.8419 
 387   0.0000       1.232625        33.5414 
 388   0.0000       1.236999        33.6605 
 389   0.0000       1.241078        33.7714 
 390   0.0000       1.244435        33.8628 
 391   0.0000       1.248848        33.9829 
 392   0.0000       1.277458        34.7614 
 393   0.0000       1.286436        35.0057 
 394   0.0000       1.296480        35.2790 
 395   0.0000       1.301684        35.4206 
 396   0.0000       1.305297        35.5189 
 397   0.0000       1.326213        36.0881 
 398   0.0000       1.329111        36.1670 
 399   0.0000       1.338308        36.4172 
 400   0.0000       1.347722        36.6734 
 401   0.0000       1.360148        37.0115 
 402   0.0000       1.382746        37.6264 
 403   0.0000       1.397478        38.0273 
 404   0.0000       1.410005        38.3682 
 405   0.0000       1.417354        38.5682 
 406   0.0000       1.428088        38.8603 
 407   0.0000       1.428312        38.8664 
 408   0.0000       1.434326        39.0300 
 409   0.0000       1.436133        39.0792 
 410   0.0000       1.444864        39.3168 
 411   0.0000       1.452412        39.5221 
 412   0.0000       1.457566        39.6624 
 413   0.0000       1.489586        40.5337 
 414   0.0000       1.492683        40.6180 
 415   0.0000       1.496174        40.7130 
 416   0.0000       1.502396        40.8823 
 417   0.0000       1.503300        40.9069 
 418   0.0000       1.504860        40.9493 
 419   0.0000       1.511956        41.1424 
 420   0.0000       1.529434        41.6180 
 421   0.0000       1.538316        41.8597 
 422   0.0000       1.546178        42.0736 
 423   0.0000       1.547103        42.0988 
 424   0.0000       1.549003        42.1505 
[...]
Total number of batches                      ...      301
Average number of points per batch           ...       59
Average number of grid points per atom       ...      444

Memory available               ... 812.4 MB
Memory needed per perturbation ...  48.1 MB
Perturbations treated per batch... 3
Number of batches              ... 1
     CP-SCF ITERATION   0:   4.0001e-02 (   6.2 sec   0/  3 done)
     CP-SCF ITERATION   1:   1.5901e-03 (   6.3 sec   1/  3 done)
     CP-SCF ITERATION   2:   1.4348e-04 (   5.1 sec   3/  3 done)
                    *** THE CP-SCF HAS CONVERGED ***

Forming final perturbed densities           ... done
Transforming perturbed density to AO basis  ... done

 Raw HFC matrix (all values in MHz): 
 -----------------------------------
                -0.0351               0.0686              -0.0635
                 0.0683               0.0466              -0.1098
                -0.0632              -0.1099               0.0241

 A(FC)           0.0116               0.0116               0.0116
 A(SD)          -0.0859              -0.0888               0.1747
 A(ORB+DIA)      0.0005               0.0012              -0.0011    A(PC) =   0.0002
 A(ORB)          0.0005               0.0013              -0.0011    A(PC) =   0.0002
 A(DIA)         -0.0000              -0.0000               0.0000    A(PC) =  -0.0000
             ----------           ----------           ----------
 A(Tot)         -0.0738              -0.0759               0.1852    A(iso)=    0.0118
 Orientation: 
  X           0.7350085            0.5545545           -0.3901688
  Y          -0.6352090            0.3618344           -0.6823382
  Z          -0.2372172            0.7493631            0.6182094

Notes:  (1) The A matrix conforms to the "SAI" spin Hamiltonian convention.
        (2) Tensor is right-handed.

 Raw EFG matrix (all values in a.u.**-3):
 -----------------------------------
             0.0972       0.0080      -0.2009
             0.0080      -0.1338      -0.0026
            -0.2009      -0.0026       0.0366

 V(El)       0.5751       0.7906      -1.3657
 V(Nuc)     -0.7068      -0.9292       1.6360
         ----------   ----------   ----------
 V(Tot)     -0.1317      -0.1385       0.2702 
 Orientation: 
  X      -0.3624112    0.5424008   -0.7579311
  Y      -0.8187767   -0.5737936   -0.0191209
  Z      -0.4452672    0.6136467    0.6520544

Note: Tensor is right-handed


 Quadrupole tensor eigenvalues (in MHz;Q= 0.0029 I=  1.0)
  e**2qQ            =     0.181463 MHz 
  e**2qQ/(4I*(2I-1))=     0.045366 MHz 
  eta               =     0.025356
  NOTE: the diagonal representation of the SH term I*Q*I = e**2qQ/(4I(2I-1))*[-(1-eta),-(1+eta),2]

 RHO(0)=      0.436942301 a.u.**-3

 -----------------------------------------------------------
 Nucleus  39H : A:ISTP=    1 I=  0.5 P=533.5514 MHz/au**3
                Q:ISTP=    2 I=  1.0 Q=  0.0029 barn     
 -----------------------------------------------------------
 Solving for nuclear perturbation:
Forming RHS of the CP-SCF equations         ... 
Calc. nucleus orbit integrals (SHARK)       ... done

------------------------------------------------------------------------------
                           ORCA CP-SCF CALCULATION
------------------------------------------------------------------------------

Input orbitals are from        ... input_36.gbw
Input Perturbation             ... input_36.pin.tmp
Wavefunction output            ... input_36.pout.tmp
Perturbation mode              ... Imaginary perturbation
Solver                         ... POPLE
Max. number of iterations      ... 64
Convergence tolerance          ... 1.000e-03
Integral handling              ... Direct
DFT GridXC                     ... 1
COSX GridX                     ... 1
COSX IntAccX                   ... 3.067
COSX Algorithm                 ... Auto
Number of perturbations        ... 3
Number of operators            ... 2
Orbital ranges used for CP-SCF:
 Operator 0:  Orbitals   0...160  to 161...680
 Operator 1:  Orbitals   0...159  to 160...680
Variables per perturbation     ... 167080
DFT calculation                         ... on
XC functional terms                     ... off
Hybrid DFT                              ... on
   Exchange mixing (SCF)                ...  0.200
   Exchange mixing (CP-SCF)             ...  0.200
   GGA exch. scaling(SCF)               ...  0.720
   GGA exch. scaling (CP-SCF)           ...  0.720
   GGA corr. scaling (SCF)              ...  0.810
   GGA corr. scaling (CP-SCF)           ...  0.810

CP-SCF GRID
-----------

General Integration Accuracy     IntAcc      ... 3.467
Radial Grid Type                 RadialGrid  ... OptM3 with GC (2021)
Angular Grid (max. ang.)         AngularGrid ... 1 (Lebedev-50)
Angular grid pruning method      GridPruning ... 4 (adaptive)
Weight generation scheme         WeightScheme... Becke
Basis function cutoff            BFCut       ... 1.0000e-10
Integration weight cutoff        WCut        ... 1.0000e-14
Angular grids for H and He will be reduced by one unit
Partially contracted basis set               ... off
Rotationally invariant grid construction     ... off

Total number of grid points                  ...    39256
Total number of batches                      ...      632
Average number of points per batch           ...       62
Average number of grid points per atom       ...      981

CP-SCF GRIDX
------------

General Integration Accuracy     IntAcc      ... 3.067
Radial Grid Type                 RadialGrid  ... OptM3 with GC (2021)
Angular Grid (max. ang.)         AngularGrid ... 1 (Lebedev-50)
Angular grid pruning method      GridPruning ... 4 (adaptive)
Weight generation scheme         WeightScheme... Becke
Basis function cutoff            BFCut       ... 1.0000e-10
Integration weight cutoff        WCut        ... 1.0000e-14
Angular grids for H and He will be reduced by one unit
Partially contracted basis set               ... on
Rotationally invariant grid construction     ... off

Total number of grid points                  ...    17762
Total number of batches                      ...      301
Average number of points per batch           ...       59
Average number of grid points per atom       ...      444

Memory available               ... 809.6 MB
Memory needed per perturbation ...  48.1 MB
Perturbations treated per batch... 3
Number of batches              ... 1
     CP-SCF ITERATION   0:   4.2424e-02 (   6.2 sec   0/  3 done)
     CP-SCF ITERATION   1:   1.5285e-03 (   6.3 sec   0/  3 done)
     CP-SCF ITERATION   2:   1.8260e-04 (   6.4 sec   3/  3 done)
                    *** THE CP-SCF HAS CONVERGED ***

Forming final perturbed densities           ... done
Transforming perturbed density to AO basis  ... done

 Raw HFC matrix (all values in MHz): 
 -----------------------------------
                -0.0818               0.1245              -0.0828
                 0.1243               0.0902              -0.1640
                -0.0827              -0.1640              -0.0352

 A(FC)          -0.0093              -0.0093              -0.0093
 A(SD)          -0.1373              -0.1409               0.2783
 A(ORB+DIA)      0.0021               0.0008              -0.0019    A(PC) =   0.0003
 A(ORB)          0.0021               0.0009              -0.0020    A(PC) =   0.0004
 A(DIA)         -0.0000              -0.0001               0.0000    A(PC) =  -0.0000
             ----------           ----------           ----------
 A(Tot)         -0.1445              -0.1494               0.2671    A(iso)=   -0.0090
 Orientation: 
  X          -0.7904813           -0.4690783            0.3938336
  Y          -0.0088855            0.6517231            0.7584050
  Z          -0.6124217            0.5960055           -0.5193429

Notes:  (1) The A matrix conforms to the "SAI" spin Hamiltonian convention.
        (2) Tensor is right-handed.

 Raw EFG matrix (all values in a.u.**-3):
 -----------------------------------
            -0.0844      -0.0450       0.1182
            -0.0450      -0.0893      -0.1105
             0.1182      -0.1105       0.1737

 V(El)       0.6730       0.3381      -1.0111
 V(Nuc)     -0.8013      -0.4702       1.2714
         ----------   ----------   ----------
 V(Tot)     -0.1283      -0.1320       0.2603 
 Orientation: 
  X      -0.5371263    0.7700269   -0.3443166
  Y       0.7023749    0.6343362    0.3229351
  Z       0.4670812   -0.0683824   -0.8815662

Note: Tensor is right-handed


 Quadrupole tensor eigenvalues (in MHz;Q= 0.0029 I=  1.0)
  e**2qQ            =     0.174799 MHz 
  e**2qQ/(4I*(2I-1))=     0.043700 MHz 
  eta               =     0.014469
  NOTE: the diagonal representation of the SH term I*Q*I = e**2qQ/(4I(2I-1))*[-(1-eta),-(1+eta),2]

 RHO(0)=      0.434075978 a.u.**-3

 -----------------------------------------------------------
 Nucleus   0V : A:ISTP=   51 I=  3.5 P=140.5173 MHz/au**3
                Q:ISTP=   51 I=  3.5 Q= -0.0430 barn     
 -----------------------------------------------------------
 Solving for nuclear perturbation:
Forming RHS of the CP-SCF equations         ... 
Calc. nucleus orbit integrals (SHARK)       ... done

------------------------------------------------------------------------------
                           ORCA CP-SCF CALCULATION
------------------------------------------------------------------------------

Input orbitals are from        ... input_36.gbw
Input Perturbation             ... input_36.pin.tmp
Wavefunction output            ... input_36.pout.tmp
Perturbation mode              ... Imaginary perturbation
Solver                         ... POPLE
Max. number of iterations      ... 64
Convergence tolerance          ... 1.000e-03
Integral handling              ... Direct
DFT GridXC                     ... 1
COSX GridX                     ... 1
COSX IntAccX                   ... 3.067
COSX Algorithm                 ... Auto
Number of perturbations        ... 3
Number of operators            ... 2
Orbital ranges used for CP-SCF:
 Operator 0:  Orbitals   0...160  to 161...680
 Operator 1:  Orbitals   0...159  to 160...680
Variables per perturbation     ... 167080
DFT calculation                         ... on
XC functional terms                     ... off
Hybrid DFT                              ... on
   Exchange mixing (SCF)                ...  0.200
   Exchange mixing (CP-SCF)             ...  0.200
   GGA exch. scaling(SCF)               ...  0.720
   GGA exch. scaling (CP-SCF)           ...  0.720
   GGA corr. scaling (SCF)              ...  0.810
   GGA corr. scaling (CP-SCF)           ...  0.810

CP-SCF GRID
-----------

General Integration Accuracy     IntAcc      ... 3.467
Radial Grid Type                 RadialGrid  ... OptM3 with GC (2021)
Angular Grid (max. ang.)         AngularGrid ... 1 (Lebedev-50)
Angular grid pruning method      GridPruning ... 4 (adaptive)
Weight generation scheme         WeightScheme... Becke
Basis function cutoff            BFCut       ... 1.0000e-10
Integration weight cutoff        WCut        ... 1.0000e-14
Angular grids for H and He will be reduced by one unit
Partially contracted basis set               ... off
Rotationally invariant grid construction     ... off

Total number of grid points                  ...    39256
Total number of batches                      ...      632
Average number of points per batch           ...       62
Average number of grid points per atom       ...      981

CP-SCF GRIDX
------------

General Integration Accuracy     IntAcc      ... 3.067
Radial Grid Type                 RadialGrid  ... OptM3 with GC (2021)
Angular Grid (max. ang.)         AngularGrid ... 1 (Lebedev-50)
Angular grid pruning method      GridPruning ... 4 (adaptive)
Weight generation scheme         WeightScheme... Becke
Basis function cutoff            BFCut       ... 1.0000e-10
Integration weight cutoff        WCut        ... 1.0000e-14
Angular grids for H and He will be reduced by one unit
Partially contracted basis set               ... on
Rotationally invariant grid construction     ... off

Total number of grid points                  ...    17762
Total number of batches                      ...      301
Average number of points per batch           ...       59
Average number of grid points per atom       ...      444

Memory available               ... 806.7 MB
Memory needed per perturbation ...  48.1 MB
Perturbations treated per batch... 3
Number of batches              ... 1
     CP-SCF ITERATION   0:   1.1375e+01 (   6.7 sec   0/  3 done)
     CP-SCF ITERATION   1:   2.0478e+00 (   6.4 sec   0/  3 done)
     CP-SCF ITERATION   2:   3.5434e-01 (   6.4 sec   0/  3 done)
     CP-SCF ITERATION   3:   4.5819e-02 (   6.4 sec   0/  3 done)
     CP-SCF ITERATION   4:   1.1741e-02 (   6.4 sec   0/  3 done)
     CP-SCF ITERATION   5:   2.6949e-03 (   6.5 sec   0/  3 done)
     CP-SCF ITERATION   6:   3.9115e-04 (   6.4 sec   3/  3 done)
                    *** THE CP-SCF HAS CONVERGED ***

Forming final perturbed densities           ... done
Transforming perturbed density to AO basis  ... done

 Raw HFC matrix (all values in MHz): 
 -----------------------------------
              -241.7715             -65.9282            -137.5188
               -65.2813            -113.4611             -53.3218
              -138.0621             -54.0623            -205.4693

 A(FC)        -174.8639            -174.8639            -174.8639
 A(SD)          98.8434              93.4544            -192.2978
 A(ORB+DIA)     -6.9848              -7.6013             -21.5244    A(PC) = -12.0368
 A(ORB)         -6.9843              -7.6017             -21.5242    A(PC) = -12.0368
 A(DIA)         -0.0004               0.0005              -0.0002    A(PC) =  -0.0000
             ----------           ----------           ----------
 A(Tot)        -83.0052             -89.0107            -388.6860    A(iso)= -186.9007
 Orientation: 
  X          -0.6531741           -0.2320901            0.7207620
  Y           0.5916108           -0.7505268            0.2944591
  Z           0.4726101            0.6187436            0.6275317

Notes:  (1) The A matrix conforms to the "SAI" spin Hamiltonian convention.
        (2) Tensor is right-handed.

 Raw EFG matrix (all values in a.u.**-3):
 -----------------------------------
             0.0726      -0.0459       0.1663
            -0.0459      -0.1150       0.0856
             0.1663       0.0856       0.0423

 V(El)       0.1963      -0.4843       0.2880
 V(Nuc)     -0.2154       0.2772      -0.0618
         ----------   ----------   ----------
 V(Tot)     -0.0191      -0.2072       0.2263 
 Orientation: 
  X      -0.5352897   -0.4384256    0.7219751
  Y       0.6907421   -0.7191574    0.0754183
  Z       0.4861484    0.5390692    0.6877966

Note: Tensor is right-handed


 Quadrupole tensor eigenvalues (in MHz;Q=-0.0430 I=  3.5)
  e**2qQ            =    -2.285979 MHz 
  e**2qQ/(4I*(2I-1))=    -0.027214 MHz 
  eta               =     0.831299
  NOTE: the diagonal representation of the SH term I*Q*I = e**2qQ/(4I(2I-1))*[-(1-eta),-(1+eta),2]

 RHO(0)=   8115.189516133 a.u.**-3


--------------------------------------------------------------------------------
----------------------------------------------------------------------------
                           ORCA EULER ANGLE PROGRAM
----------------------------------------------------------------------------

Only g-tensor available        -->  using g-tensor as reference tensor

Reference tensor               ...  g

g-tensor ordering              ...  |g_min> --> |gx>
                                    |g_mid> --> |gy>
                                    |g_max> --> |gz>

A- and EFG-tensor ordering     ...  the axes |Ax>, |Qx>, |Ay>, etc. are assigned
                                    such that the Euler rotation is minimal. You
                                    can find the respective eigenvalues as Ax,
                                    EFGx, Ay, etc. in the tables below.
                                    The relation of |Ax>, |Ay>,  etc. to Amin, Amid, etc.
                                    (as printed in the ORCA EPR/NMR CALCULATION Output)
                                    is obtained in the detailed printout.

Euler rotation around          ...  z - y - z
   First rotation              -->  by alpha around z
   Second rotation             -->  by beta around y'
   Third rotation              -->  by gamma around z''
   Positive / Negative angle   -->  clockwise / counterclockwise rotation

Plot EFG-tensors                    (-)
Plot HFC-tensors                    (-)
Detailed Printout                   (-)

-------------------------------------------------------------------------
          Euler rotation of hyperfine tensor to g-tensor
-------------------------------------------------------------------------

-------------------------------------------------------------------
 Atom  |   Alpha    Beta    Gamma   |   Ax       Ay       Az 
       |          [degrees]         |           [MHz]         
-------------------------------------------------------------------
 25H     -164.7     23.0    137.5      -0.13     0.26    -0.13
 26H     -164.8     41.0    146.0      -0.08     0.16    -0.08
 27H       33.6      5.0    -59.8      -0.07     0.13    -0.07
 28H       83.7      2.8   -100.3      -0.07     0.14    -0.07
 29H       25.2     38.7    -42.6      -0.08     0.16    -0.08
 30H       41.3     17.4    -68.5      -0.13     0.26    -0.13
 34H      -59.2      3.6     52.9      -0.14     0.27    -0.15
 35H     -143.9     15.0    143.1      -0.07     0.19    -0.07
 36H       80.4      4.3    -73.7      -0.07     0.15    -0.07
 37H        9.6     30.6    -11.9      -0.06     0.14    -0.06
 38H       57.1     21.8    -55.4      -0.08     0.19    -0.07
 39H      131.3     17.4   -137.9      -0.14     0.27    -0.15
  0V       94.0     10.0    -88.7    -388.69   -89.01   -83.01
-------------------------------------------------------------------


-------------------------------------------------------------------------------
    Euler rotation of Electric Field Gradient (EFG) tensor to g-tensor
-------------------------------------------------------------------------------

-------------------------------------------------------------------
 Atom  |   Alpha    Beta    Gamma  |   EFGx     EFGy     EFGz
       |          [degrees]        |         [a.u.**-3]       
-------------------------------------------------------------------
 25H        2.2     29.2     30.4     -0.14     0.29    -0.14
 26H      142.2     38.3   -115.3     -0.14    -0.15     0.29
 27H      127.7      3.0   -109.4      0.28    -0.14    -0.14
 28H      150.1      2.9   -114.9     -0.15     0.28    -0.14
 29H      -36.8     32.9     63.1     -0.14    -0.15     0.29
 30H      175.9     35.8   -144.8     -0.14     0.28    -0.14
 34H     -143.7      6.9    103.8      0.27    -0.13    -0.13
 35H      149.5     38.4   -106.4     -0.13    -0.14     0.28
 36H       97.9      6.7   -125.1      0.26    -0.13    -0.13
 37H       76.7      5.9   -120.9     -0.14     0.27    -0.13
 38H      -37.9     27.8     78.8     -0.13    -0.14     0.27
 39H       68.2     18.0   -108.6      0.26    -0.13    -0.13
  0V      105.2     17.2   -111.9      0.23    -0.21    -0.02
-------------------------------------------------------------------


Maximum memory used throughout the entire EPRNMR-calculation: 318.9 MB

Timings for individual modules:

Sum of individual times         ...     3976.064 sec (=  66.268 min)
GTO integral calculation        ...        1.490 sec (=   0.025 min)   0.0 %
Spin-Orbit-Coupling Matrices    ...       13.129 sec (=   0.219 min)   0.3 %
SCF iterations                  ...      237.518 sec (=   3.959 min)   6.0 %
EPR/NMR calculation             ...     3723.927 sec (=  62.065 min)  93.7 %
                             ****ORCA TERMINATED NORMALLY****
TOTAL RUN TIME: 0 days 1 hours 6 minutes 17 seconds 185 msec
