
                                 *****************
                                 * O   R   C   A *
                                 *****************

                                            #,                                       
                                            ###                                      
                                            ####                                     
                                            #####                                    
                                            ######                                   
                                           ########,                                 
                                     ,,################,,,,,                         
                               ,,#################################,,                 
                          ,,##########################################,,             
                       ,#########################################, ''#####,          
                    ,#############################################,,   '####,        
                  ,##################################################,,,,####,       
                ,###########''''           ''''###############################       
              ,#####''   ,,,,##########,,,,          '''####'''          '####       
            ,##' ,,,,###########################,,,                        '##       
           ' ,,###''''                  '''############,,,                           
         ,,##''                                '''############,,,,        ,,,,,,###''
      ,#''                                            '''#######################'''  
     '                                                          ''''####''''         
             ,#######,   #######,   ,#######,      ##                                
            ,#'     '#,  ##    ##  ,#'     '#,    #''#        ######   ,####,        
            ##       ##  ##   ,#'  ##            #'  '#       #        #'  '#        
            ##       ##  #######   ##           ,######,      #####,   #    #        
            '#,     ,#'  ##    ##  '#,     ,#' ,#      #,         ##   #,  ,#        
             '#######'   ##     ##  '#######'  #'      '#     #####' # '####'        



                  #######################################################
                  #                        -***-                        #
                  #          Department of theory and spectroscopy      #
                  #    Directorship and core code : Frank Neese         #
                  #        Max Planck Institute fuer Kohlenforschung    #
                  #                Kaiser Wilhelm Platz 1               #
                  #                 D-45470 Muelheim/Ruhr               #
                  #                      Germany                        #
                  #                                                     #
                  #                  All rights reserved                #
                  #                        -***-                        #
                  #######################################################


                         Program Version 5.0.4 -  RELEASE  -


 With contributions from (in alphabetic order):
   Daniel Aravena         : Magnetic Suceptibility
   Michael Atanasov       : Ab Initio Ligand Field Theory (pilot matlab implementation)
   Alexander A. Auer      : GIAO ZORA, VPT2 properties, NMR spectrum
   Ute Becker             : Parallelization
   Giovanni Bistoni       : ED, misc. LED, open-shell LED, HFLD
   Martin Brehm           : Molecular dynamics
   Dmytro Bykov           : SCF Hessian
   Vijay G. Chilkuri      : MRCI spin determinant printing, contributions to CSF-ICE
   Dipayan Datta          : RHF DLPNO-CCSD density
   Achintya Kumar Dutta   : EOM-CC, STEOM-CC
   Dmitry Ganyushin       : Spin-Orbit,Spin-Spin,Magnetic field MRCI
   Miquel Garcia          : C-PCM and meta-GGA Hessian, CC/C-PCM, Gaussian charge scheme
   Yang Guo               : DLPNO-NEVPT2, F12-NEVPT2, CIM, IAO-localization
   Andreas Hansen         : Spin unrestricted coupled pair/coupled cluster methods
   Benjamin Helmich-Paris : MC-RPA, TRAH-SCF, COSX integrals
   Lee Huntington         : MR-EOM, pCC
   Robert Izsak           : Overlap fitted RIJCOSX, COSX-SCS-MP3, EOM
   Marcus Kettner         : VPT2
   Christian Kollmar      : KDIIS, OOCD, Brueckner-CCSD(T), CCSD density, CASPT2, CASPT2-K
   Simone Kossmann        : Meta GGA functionals, TD-DFT gradient, OOMP2, MP2 Hessian
   Martin Krupicka        : Initial AUTO-CI
   Lucas Lang             : DCDCAS
   Marvin Lechner         : AUTO-CI (C++ implementation), FIC-MRCC
   Dagmar Lenk            : GEPOL surface, SMD
   Dimitrios Liakos       : Extrapolation schemes; Compound Job, initial MDCI parallelization
   Dimitrios Manganas     : Further ROCIS development; embedding schemes
   Dimitrios Pantazis     : SARC Basis sets
   Anastasios Papadopoulos: AUTO-CI, single reference methods and gradients
   Taras Petrenko         : DFT Hessian,TD-DFT gradient, ASA, ECA, R-Raman, ABS, FL, XAS/XES, NRVS
   Peter Pinski           : DLPNO-MP2, DLPNO-MP2 Gradient
   Christoph Reimann      : Effective Core Potentials
   Marius Retegan         : Local ZFS, SOC
   Christoph Riplinger    : Optimizer, TS searches, QM/MM, DLPNO-CCSD(T), (RO)-DLPNO pert. Triples
   Tobias Risthaus        : Range-separated hybrids, TD-DFT gradient, RPA, STAB
   Michael Roemelt        : Original ROCIS implementation
   Masaaki Saitow         : Open-shell DLPNO-CCSD energy and density
   Barbara Sandhoefer     : DKH picture change effects
   Avijit Sen             : IP-ROCIS
   Kantharuban Sivalingam : CASSCF convergence, NEVPT2, FIC-MRCI
   Bernardo de Souza      : ESD, SOC TD-DFT
   Georgi Stoychev        : AutoAux, RI-MP2 NMR, DLPNO-MP2 response
   Willem Van den Heuvel  : Paramagnetic NMR
   Boris Wezisla          : Elementary symmetry handling
   Frank Wennmohs         : Technical directorship


 We gratefully acknowledge several colleagues who have allowed us to
 interface, adapt or use parts of their codes:
   Stefan Grimme, W. Hujo, H. Kruse, P. Pracht,  : VdW corrections, initial TS optimization,
                  C. Bannwarth, S. Ehlert          DFT functionals, gCP, sTDA/sTD-DF
   Ed Valeev, F. Pavosevic, A. Kumar             : LibInt (2-el integral package), F12 methods
   Garnet Chan, S. Sharma, J. Yang, R. Olivares  : DMRG
   Ulf Ekstrom                                   : XCFun DFT Library
   Mihaly Kallay                                 : mrcc  (arbitrary order and MRCC methods)
   Jiri Pittner, Ondrej Demel                    : Mk-CCSD
   Frank Weinhold                                : gennbo (NPA and NBO analysis)
   Christopher J. Cramer and Donald G. Truhlar   : smd solvation model
   Lars Goerigk                                  : TD-DFT with DH, B97 family of functionals
   V. Asgeirsson, H. Jonsson                     : NEB implementation
   FAccTs GmbH                                   : IRC, NEB, NEB-TS, DLPNO-Multilevel, CI-OPT
                                                   MM, QMMM, 2- and 3-layer-ONIOM, Crystal-QMMM,
                                                   LR-CPCM, SF, NACMEs, symmetry and pop. for TD-DFT,
                                                   nearIR, NL-DFT gradient (VV10), updates on ESD,
                                                   ML-optimized integration grids
   S Lehtola, MJT Oliveira, MAL Marques          : LibXC Library
   Liviu Ungur et al                             : ANISO software


 Your calculation uses the libint2 library for the computation of 2-el integrals
 For citations please refer to: http://libint.valeyev.net

 Your ORCA version has been built with support for libXC version: 5.1.0
 For citations please refer to: https://tddft.org/programs/libxc/

 This ORCA versions uses:
   CBLAS   interface :  Fast vector & matrix operations
   LAPACKE interface :  Fast linear algebra routines
   SCALAPACK package :  Parallel linear algebra routines
   Shared memory     :  Shared parallel matrices
   BLAS/LAPACK       :  OpenBLAS 0.3.15  USE64BITINT DYNAMIC_ARCH NO_AFFINITY Prescott SINGLE_THREADED
        Core in use  :  Prescott
   Copyright (c) 2011-2014, The OpenBLAS Project


================================================================================

----- Orbital basis set information -----
Your calculation utilizes the basis: TZVP 

The basis set includes element-specific modifications.

Your calculation utilizes the basis: CP(PPP) 

----- AuxJ basis set information -----
Your calculation utilizes the auxiliary basis: def2/J
   F. Weigend, Phys. Chem. Chem. Phys. 8, 1057 (2006).

================================================================================
                                        WARNINGS
                       Please study these warnings very carefully!
================================================================================


WARNING: your system is open-shell and RHF/RKS was chosen
  ===> : WILL SWITCH to UHF/UKS


INFO   : the flag for use of the SHARK integral package has been found!

================================================================================
                                       INPUT FILE
================================================================================
NAME = input_52.inp
|  1> ! nofrozencore ReducedPop printbasis
|  2> ! B3LYP TZVP
|  3> 
|  4> %basis
|  5> newgto V "CP(PPP)" end
|  6> end
|  7> 
|  8> %pal
|  9> nprocs 8
| 10> end
| 11> 
| 12> % sym SymThresh 1e-2 end
| 13> * xyz -2 2 
| 14> V 0.8233781261969751 -0.6927086420573044 0.2836366913579478
| 15> S -0.993816053910581 -1.4863812191733239 1.7646243342251133
| 16> S -0.45882020883616587 -1.757310283848448 -1.5462279107596084
| 17> S 1.0426634706915514 1.2121286328736094 1.8521441956733293
| 18> S 1.4869775373982261 0.9767714771439466 -1.4063669970957577
| 19> O 2.0737935481270453 -1.6416346801444737 0.5276812258708783
| 20> C 0.3518731350233531 -1.0267862058403414 -2.9255584093110896
| 21> C 1.1289011441830188 0.07133173860340504 -2.869388765053646
| 22> C -0.8380003116754657 -0.3742594475725585 3.1246927730032126
| 23> C -0.02680707316944015 0.7061897322543581 3.1574367547166493
| 24> S 0.08506435631859882 -1.7303367032873271 -4.557080585165336
| 25> S 1.7708281925245468 0.6807544329121415 -4.43056675782001
| 26> S -0.036785972714894075 1.7136122470061088 4.657704418503722
| 27> S -1.8468444265873716 -0.7034173865341492 4.588309685360462
| 28> C 1.0227572780729615 -0.5395127438273151 -5.4673228888580105
| 29> C -1.4937387166279938 0.8974007964926755 5.37123676298633
| 30> C 1.1720216855927013 -0.5681842439833228 -6.826546090488113
| 31> C -1.6871145185916925 1.0043134896455788 6.807581747969983
| 32> S 0.44739917048274414 -1.8502596804795979 -7.83051537411516
| 33> S 2.1263177098231822 0.6632841452982496 -7.692189120009028
| 34> S -3.1030314083668635 0.17660303152513643 7.500325556832575
| 35> S -1.3231685156924007 2.578203728056947 7.557368124792097
| 36> C -2.9271162925663083 3.535156304376741 7.565711917104843
| 37> C -4.485855388792219 1.4322357016115466 7.521582361254984
| 38> C -4.042709246137455 2.7187608978178237 8.215525447851862
| 39> H -3.1738893011865708 3.9328120795803163 6.566488751671441
| 40> H -2.6804343756823488 4.381861842935887 8.232397218237036
| 41> H -4.9233353018670565 3.367535937287354 8.392426001173309
| 42> H -3.66129474279666 2.4158109702414565 9.20597389878092
| 43> H -5.233938353045936 0.9306202369261868 8.162529151282724
| 44> H -4.922384392017446 1.5808672957981305 6.519265032397129
| 45> C 3.43661928446331 -0.4437417706314549 -8.387631599325328
| 46> C 2.011606888177184 -2.58203313376898 -8.498617619514086
| 47> C 2.887368944272784 -1.579445821210402 -9.253613158267642
| 48> H 2.5604856220625383 -3.026156824555299 -7.665150318466978
| 49> H 1.6942202969926954 -3.386963343698337 -9.166310267125523
| 50> H 2.318668852562963 -1.1576890518419363 -10.088361893777387
| 51> H 3.7399087180023662 -2.1252123067343733 -9.68167649155949
| 52> H 4.083069071419431 0.20795003112669858 -8.980808938903971
| 53> H 4.022060579659346 -0.838859358659704 -7.554354297931051
| 54> * 
| 55> 
| 56> % eprnmr
| 57> gtensor true
| 58> Nuclei = all H {aiso,adip,aorb,fgrad,rho}
| 59> Nuclei = all V {aiso,adip,aorb,fgrad,rho}
| 60> end
| 61> 
| 62>                          ****END OF INPUT****
================================================================================

------------------------------------------------------------------------------
                            SYMMETRY HANDLING SETUP
------------------------------------------------------------------------------

------------------
SYMMETRY DETECTION
------------------
The point group will now be determined using a tolerance of 1.0000e-02.
Splitting atom subsets according to nuclear charge, mass and basis set.
Splitting atom subsets according to distance from the molecule's center.
Identifying relative distance patterns of the atoms.
Splitting atom subsets according to atoms' relative distance patterns.
Bring atoms of each subset into input order.
The molecule is neither linear nor planar.
There is at least one atom subset not centered around the molecule's center.
The molecule does not have a center of inversion.
Analyzing the first atom subset for its symmetry.
The subset is an off-center atom pair.
Testing point group C2v.
Test failed.
Testing point group C2.
Test failed.
Testing point group Cs.
Test failed.
Testing point group Cs.
Test failed.
No testing is needed for point group C1.
This point group has been found:    C1
Largest non-degenerate subgroup:    C1


Mass-centered symmetry-perfected Cartesians (point group C1):

Atom          Symmetry-perfected Cartesians (x, y, z; au)
  0       1.552300561996   -1.306098668880    0.530471798374
  1      -1.881698770562   -2.805922479633    3.329132851115
  2      -0.870703140586   -3.317904213589   -2.927471161785
  3       1.966689808274    2.293522110424    3.494521420531
  4       2.806321711798    1.848761542436   -2.663172338120
  5       3.915243263076   -3.099309002212    0.991649133084
  6       0.661285257901   -1.937413771918   -5.534028052212
  7       2.129655393599    0.137728405825   -5.427882807526
  8      -1.587249690384   -0.704316903736    5.899289723795
  9      -0.054316627919    1.337436147756    5.961166881768
 10       0.157089736023   -3.266931533477   -8.617158145996
 11       3.342721712921    1.289370397865   -8.378081660159
 12      -0.073174015178    3.241188801783    8.796261893903
 13      -3.493688779386   -1.326335263180    8.665124853126
 14       1.929072555856   -1.016600376386  -10.337266815485
 15      -2.826415691239    1.698772692942   10.144642612670
 16       2.211141407610   -1.070781659529  -12.905826421437
 17      -3.191842997878    1.900808403241   12.858941268120
 18       0.841803303579   -3.493553117535  -14.803053414361
 19       4.014499544095    1.256356338794  -14.541654676970
 20      -5.867538147946    0.336662319211   14.168037347840
 21      -2.504084724863    4.875029918691   14.275832179259
 22      -5.535106756266    6.683408211086   14.291599661649
 23      -8.480696762369    2.709464190479   14.208206886681
 24      -7.643271915448    5.140644475698   15.519569272877
 25      -6.001440159802    7.434868721793   12.403341532310
 26      -5.068945491165    8.283449795037   15.551452298299
 27      -9.307413987172    6.366651622819   15.853862871594
 28      -6.922502960628    4.568152080287   17.391245594899
 29      -9.894368690261    1.761548337684   15.419420786249
 30      -9.305617027979    2.990337198340   12.314101635856
 31       6.490610673011   -0.835619465466  -15.855850504773
 32       3.797727506587   -4.876404536325  -16.065583687623
 33       5.452677951088   -2.981789090246  -17.492318488200
 34       4.834957994364   -5.715676681498  -14.490558747066
 35       3.197953770670   -6.397502190012  -17.327339933242
 36       4.377990525420   -2.184784301012  -19.069764988950
 37       7.063744641712   -4.013138280959  -18.301240956095
 38       7.712223729690    0.395899563578  -16.976793225424
 39       7.596934388420   -1.582283497535  -14.281184611524


------------------
SYMMETRY REDUCTION
------------------
ORCA supports only abelian point groups.
It is now checked, if the determined point group is supported:
Point Group ( C1    ) is          ... supported

The point group is C1 - hence turning off symmetry
If this is a round-off problem, please increase the symmetry
        detection tolerance (%method SymThresh)

Storing the symmetry object:
Symmetry file                     ... input_52.sym.tmp
Writing symmetry information      ... done

                       ****************************
                       * Single Point Calculation *
                       ****************************

---------------------------------
CARTESIAN COORDINATES (ANGSTROEM)
---------------------------------
  V      0.821442   -0.691158    0.280714
  S     -0.995752   -1.484830    1.761701
  S     -0.460756   -1.755759   -1.549151
  S      1.040727    1.213680    1.849221
  S      1.485041    0.978322   -1.409290
  O      2.071857   -1.640084    0.524758
  C      0.349937   -1.025235   -2.928482
  C      1.126965    0.072883   -2.872312
  C     -0.839936   -0.372708    3.121770
  C     -0.028743    0.707741    3.154514
  S      0.083128   -1.728786   -4.560004
  S      1.768892    0.682305   -4.433490
  S     -0.038722    1.715163    4.654781
  S     -1.848780   -0.701866    4.585387
  C      1.020821   -0.537962   -5.470246
  C     -1.495675    0.898952    5.368314
  C      1.170086   -0.566633   -6.829469
  C     -1.689051    1.005864    6.804659
  S      0.445463   -1.848709   -7.833438
  S      2.124382    0.664835   -7.695112
  S     -3.104967    0.178154    7.497402
  S     -1.325105    2.579755    7.554445
  C     -2.929052    3.536707    7.562789
  C     -4.487791    1.433787    7.518659
  C     -4.044645    2.720312    8.212602
  H     -3.175825    3.934363    6.563566
  H     -2.682370    4.383413    8.229474
  H     -4.925271    3.369087    8.389503
  H     -3.663231    2.417362    9.203051
  H     -5.235874    0.932171    8.159606
  H     -4.924320    1.582418    6.516342
  C      3.434683   -0.442191   -8.390555
  C      2.009671   -2.580482   -8.501541
  C      2.885433   -1.577895   -9.256536
  H      2.558550   -3.024606   -7.668073
  H      1.692284   -3.385412   -9.169233
  H      2.316733   -1.156138  -10.091285
  H      3.737973   -2.123661   -9.684600
  H      4.081133    0.209501   -8.983732
  H      4.020125   -0.837308   -7.557277

----------------------------
CARTESIAN COORDINATES (A.U.)
----------------------------
  NO LB      ZA    FRAG     MASS         X           Y           Z
   0 V    23.0000    0    50.940    1.552301   -1.306099    0.530472
   1 S    16.0000    0    32.060   -1.881699   -2.805922    3.329133
   2 S    16.0000    0    32.060   -0.870703   -3.317904   -2.927471
   3 S    16.0000    0    32.060    1.966690    2.293522    3.494521
   4 S    16.0000    0    32.060    2.806322    1.848762   -2.663172
   5 O     8.0000    0    15.999    3.915243   -3.099309    0.991649
   6 C     6.0000    0    12.011    0.661285   -1.937414   -5.534028
   7 C     6.0000    0    12.011    2.129655    0.137728   -5.427883
   8 C     6.0000    0    12.011   -1.587250   -0.704317    5.899290
   9 C     6.0000    0    12.011   -0.054317    1.337436    5.961167
  10 S    16.0000    0    32.060    0.157090   -3.266932   -8.617158
  11 S    16.0000    0    32.060    3.342722    1.289370   -8.378082
  12 S    16.0000    0    32.060   -0.073174    3.241189    8.796262
  13 S    16.0000    0    32.060   -3.493689   -1.326335    8.665125
  14 C     6.0000    0    12.011    1.929073   -1.016600  -10.337267
  15 C     6.0000    0    12.011   -2.826416    1.698773   10.144643
  16 C     6.0000    0    12.011    2.211141   -1.070782  -12.905826
  17 C     6.0000    0    12.011   -3.191843    1.900808   12.858941
  18 S    16.0000    0    32.060    0.841803   -3.493553  -14.803053
  19 S    16.0000    0    32.060    4.014500    1.256356  -14.541655
  20 S    16.0000    0    32.060   -5.867538    0.336662   14.168037
  21 S    16.0000    0    32.060   -2.504085    4.875030   14.275832
  22 C     6.0000    0    12.011   -5.535107    6.683408   14.291600
  23 C     6.0000    0    12.011   -8.480697    2.709464   14.208207
  24 C     6.0000    0    12.011   -7.643272    5.140644   15.519569
  25 H     1.0000    0     1.008   -6.001440    7.434869   12.403342
  26 H     1.0000    0     1.008   -5.068945    8.283450   15.551452
  27 H     1.0000    0     1.008   -9.307414    6.366652   15.853863
  28 H     1.0000    0     1.008   -6.922503    4.568152   17.391246
  29 H     1.0000    0     1.008   -9.894369    1.761548   15.419421
  30 H     1.0000    0     1.008   -9.305617    2.990337   12.314102
  31 C     6.0000    0    12.011    6.490611   -0.835619  -15.855851
  32 C     6.0000    0    12.011    3.797728   -4.876405  -16.065584
  33 C     6.0000    0    12.011    5.452678   -2.981789  -17.492318
  34 H     1.0000    0     1.008    4.834958   -5.715677  -14.490559
  35 H     1.0000    0     1.008    3.197954   -6.397502  -17.327340
  36 H     1.0000    0     1.008    4.377991   -2.184784  -19.069765
  37 H     1.0000    0     1.008    7.063745   -4.013138  -18.301241
  38 H     1.0000    0     1.008    7.712224    0.395900  -16.976793
  39 H     1.0000    0     1.008    7.596934   -1.582283  -14.281185

--------------------------------
INTERNAL COORDINATES (ANGSTROEM)
--------------------------------
 V      0   0   0     0.000000000000     0.00000000     0.00000000
 S      1   0   0     2.474961665604     0.00000000     0.00000000
 S      1   2   0     2.475038118524    85.64700105     0.00000000
 S      1   2   3     2.477237755519    86.14090715   148.67445735
 S      1   2   3     2.466503702398   145.54815276    75.77192767
 O      1   2   3     1.588570768957   107.12470101   255.28398240
 C      3   1   2     1.758818282416    99.34424027   165.65922654
 C      7   3   1     1.346399114625   124.89334086   342.89070330
 C      2   1   3     1.763768561506   101.20740173   202.77478293
 C      9   2   1     1.351472185702   125.15557169     7.84528463
 S      7   3   1     1.796673269450   118.75439734   165.80064052
 S      8   7   3     1.794642883927   116.55756922   183.41819270
 S     10   9   2     1.807153221138   117.54661425   179.63780859
 S      9   2   1     1.807840109941   117.39925752   187.65705931
 C     12   8   7     1.767349810004    97.14844236     0.35776451
 C     13  10   9     1.816050890412    94.59220731   349.27914730
 C     15  12   8     1.367695006251   123.45367679   179.77950228
 C     16  13  10     1.453241700692   117.51776479   158.99664452
 S     17  15  12     1.782343832356   122.03967953   177.79411003
 S     17  15  12     1.782283128524   121.77839275   358.79016302
 S     18  16  13     1.780398614342   117.14171205   181.03830139
 S     18  16  13     1.780945475432   116.99626084    39.98889078
 C     22  18  16     1.867746321944   106.21113410    91.98604360
 C     21  18  16     1.867958086993   106.29951498   267.90847974
 C     24  21  18     1.527443154968   110.88960040   307.47725693
 H     23  22  18     1.103392028100   111.88014008   283.79727304
 H     23  22  18     1.105545805424   101.74034190   167.96978275
 H     25  24  21     1.108018550221   109.58017217   190.93131659
 H     25  24  21     1.103740828240   106.06672960   306.08600513
 H     24  21  18     1.105467766814   101.68576506   192.43079422
 H     24  21  18     1.103308184134   111.90780262    76.61330737
 C     20  17  15     1.850955655083    98.52705587   117.26299247
 C     19  17  15     1.851647585622    98.28364780   242.86171479
 C     32  20  17     1.530171130014   113.73054434    57.24544957
 H     33  19  17     1.092328457536   108.05054902    65.76112164
 H     33  19  17     1.092913703270   105.43675392   181.29882398
 H     34  32  20     1.094579379604   109.39674499    58.95047703
 H     34  32  20     1.099055658200   108.09241635   175.47960936
 H     32  20  17     1.092913028435   105.42711171   178.26608551
 H     32  20  17     1.092341741173   108.00654176   293.78426209

---------------------------
INTERNAL COORDINATES (A.U.)
---------------------------
 V      0   0   0     0.000000000000     0.00000000     0.00000000
 S      1   0   0     4.676999739945     0.00000000     0.00000000
 S      1   2   0     4.677144215027    85.64700105     0.00000000
 S      1   2   3     4.681300926541    86.14090715   148.67445735
 S      1   2   3     4.661016505835   145.54815276    75.77192767
 O      1   2   3     3.001963697682   107.12470101   255.28398240
 C      3   1   2     3.323684873101    99.34424027   165.65922654
 C      7   3   1     2.544325593596   124.89334086   342.89070330
 C      2   1   3     3.333039544867   101.20740173   202.77478293
 C      9   2   1     2.553912308588   125.15557169     7.84528463
 S      7   3   1     3.395220431397   118.75439734   165.80064052
 S      8   7   3     3.391383558812   116.55756922   183.41819270
 S     10   9   2     3.415024669985   117.54661425   179.63780859
 S      9   2   1     3.416322701707   117.39925752   187.65705931
 C     12   8   7     3.339807123745    97.14844236     0.35776451
 C     13  10   9     3.431838828143    94.59220731   349.27914730
 C     15  12   8     2.584568996545   123.45367679   179.77950228
 C     16  13  10     2.746228820702   117.51776479   158.99664452
 S     17  15  12     3.368141719637   122.03967953   177.79411003
 S     17  15  12     3.368027006018   121.77839275   358.79016302
 S     18  16  13     3.364465790319   117.14171205   181.03830139
 S     18  16  13     3.365499208012   116.99626084    39.98889078
 C     22  18  16     3.529529036112   106.21113410    91.98604360
 C     21  18  16     3.529929214060   106.29951498   267.90847974
 C     24  21  18     2.886449248022   110.88960040   307.47725693
 H     23  22  18     2.085108751461   111.88014008   283.79727304
 H     23  22  18     2.089178800756   101.74034190   167.96978275
 H     25  24  21     2.093851611222   109.58017217   190.93131659
 H     25  24  21     2.085767888202   106.06672960   306.08600513
 H     24  21  18     2.089031329156   101.68576506   192.43079422
 H     24  21  18     2.084950309326   111.90780262    76.61330737
 C     20  17  15     3.497799274139    98.52705587   117.26299247
 C     19  17  15     3.499106833363    98.28364780   242.86171479
 C     32  20  17     2.891604373760   113.73054434    57.24544957
 H     33  19  17     2.064201633033   108.05054902    65.76112164
 H     33  19  17     2.065307587190   105.43675392   181.29882398
 H     34  32  20     2.068455259289   109.39674499    58.95047703
 H     34  32  20     2.076914199934   108.09241635   175.47960936
 H     32  20  17     2.065306311938   105.42711171   178.26608551
 H     32  20  17     2.064226735468   108.00654176   293.78426209

---------------------
BASIS SET INFORMATION
---------------------
There are 5 groups of distinct atoms

 Group   1 Type V   : 17s11p5d1f contracted to 17s7p3d1f pattern {11111111111111111/3311111/311/1}
 Group   2 Type S   : 14s9p1d contracted to 5s4p1d pattern {73211/6111/1}
 Group   3 Type O   : 11s6p1d contracted to 5s3p1d pattern {62111/411/1}
 Group   4 Type C   : 11s6p1d contracted to 5s3p1d pattern {62111/411/1}
 Group   5 Type H   : 5s1p contracted to 3s1p pattern {311/1}

Atom   0V    basis set group =>   1
Atom   1S    basis set group =>   2
Atom   2S    basis set group =>   2
Atom   3S    basis set group =>   2
Atom   4S    basis set group =>   2
Atom   5O    basis set group =>   3
Atom   6C    basis set group =>   4
Atom   7C    basis set group =>   4
Atom   8C    basis set group =>   4
Atom   9C    basis set group =>   4
Atom  10S    basis set group =>   2
Atom  11S    basis set group =>   2
Atom  12S    basis set group =>   2
Atom  13S    basis set group =>   2
Atom  14C    basis set group =>   4
Atom  15C    basis set group =>   4
Atom  16C    basis set group =>   4
Atom  17C    basis set group =>   4
Atom  18S    basis set group =>   2
Atom  19S    basis set group =>   2
Atom  20S    basis set group =>   2
Atom  21S    basis set group =>   2
Atom  22C    basis set group =>   4
Atom  23C    basis set group =>   4
Atom  24C    basis set group =>   4
Atom  25H    basis set group =>   5
Atom  26H    basis set group =>   5
Atom  27H    basis set group =>   5
Atom  28H    basis set group =>   5
Atom  29H    basis set group =>   5
Atom  30H    basis set group =>   5
Atom  31C    basis set group =>   4
Atom  32C    basis set group =>   4
Atom  33C    basis set group =>   4
Atom  34H    basis set group =>   5
Atom  35H    basis set group =>   5
Atom  36H    basis set group =>   5
Atom  37H    basis set group =>   5
Atom  38H    basis set group =>   5
Atom  39H    basis set group =>   5

-------------------------
BASIS SET IN INPUT FORMAT
-------------------------

 # Basis set for element : H 
 NewGTO H 
 S 3 
   1      34.0613410000      0.0254393168
   2       5.1235746000      0.1900859340
   3       1.1646626000      0.8524411390
 S 1 
   1       0.3272304100      1.0000000000
 S 1 
   1       0.1030724100      1.0000000000
 P 1 
   1       0.8000000000      1.0000000000
  end;

 # Basis set for element : C 
 NewGTO C 
 S 6 
   1   13575.3496820000      0.0006064601
   2    2035.2333680000      0.0046978985
   3     463.2256235900      0.0243324735
   4     131.2001959800      0.0973999560
   5      42.8530158900      0.3019558443
   6      15.5841857700      0.6623361013
 S 2 
   1       6.2067138500      0.6559530795
   2       2.5764896500      0.3758563390
 S 1 
   1       0.5769633900      1.0000000000
 S 1 
   1       0.2297283100      1.0000000000
 S 1 
   1       0.0951644400      1.0000000000
 P 4 
   1      34.6972322400      0.0113272290
   2       7.9582622800      0.0761696612
   3       2.3780826900      0.3019225154
   4       0.8143320800      0.7278502776
 P 1 
   1       0.2888754700      1.0000000000
 P 1 
   1       0.1005682400      1.0000000000
 D 1 
   1       0.8000000000      1.0000000000
  end;

 # Basis set for element : O 
 NewGTO O 
 S 6 
   1   27032.3826310000      0.0005722654
   2    4052.3871392000      0.0044353333
   3     922.3272271000      0.0230201034
   4     261.2407098900      0.0928224938
   5      85.3546413500      0.2937849971
   6      31.0350352400      0.6740160462
 S 2 
   1      12.2608607300      0.6383993750
   2       4.9987076000      0.3953458663
 S 1 
   1       1.1703108200      1.0000000000
 S 1 
   1       0.4647474100      1.0000000000
 S 1 
   1       0.1850453600      1.0000000000
 P 4 
   1      63.2749548000      0.0120183316
   2      14.6270493800      0.0830054304
   3       4.4501223500      0.3199174388
   4       1.5275799600      0.7071554258
 P 1 
   1       0.5293511800      1.0000000000
 P 1 
   1       0.1747842100      1.0000000000
 D 1 
   1       1.2000000000      1.0000000000
  end;

 # Basis set for element : S 
 NewGTO S 
 S 7 
   1   60700.9281040000      0.0005238013
   2    9102.6106854000      0.0040506304
   3    2071.4166009000      0.0208270003
   4     586.0247682100      0.0814968475
   5     190.5539502100      0.2374911358
   6      67.6303842600      0.4472617145
   7      25.1273069100      0.3489191913
 S 3 
   1     112.5746301000      0.1004556993
   2      34.7955542200      0.4339117282
   3       6.5115556200     -1.2084330582
 S 2 
   1       3.2399032300      0.6749812922
   2       1.5477160900      0.3470879597
 S 1 
   1       0.4054103000      1.0000000000
 S 1 
   1       0.1455065100      1.0000000000
 P 6 
   1     564.3671602700      0.0025564845
   2     133.4262437900      0.0202874255
   3      42.4682711900      0.0927670112
   4      15.6165275800      0.2650208365
   5       6.1093988500      0.4486298663
   6       2.4404160200      0.3596369916
 P 1 
   1       0.8388220100      1.0000000000
 P 1 
   1       0.3128874700      1.0000000000
 P 1 
   1       0.1077010900      1.0000000000
 D 1 
   1       0.5500000000      1.0000000000
  end;

 # Basis set for element : V 
 NewGTO V 
 S 1 
   1  4239814.9912500000      1.0000000000
 S 1 
   1  1695925.9965000001      1.0000000000
 S 1 
   1  678370.3986000001      1.0000000000
 S 1 
   1  271348.1594400000      1.0000000000
 S 1 
   1   40672.0050780000      1.0000000000
 S 1 
   1    9257.0761385000      1.0000000000
 S 1 
   1    2622.7328773000      1.0000000000
 S 1 
   1     858.5948018500      1.0000000000
 S 1 
   1     314.1941865000      1.0000000000
 S 1 
   1     124.4786212700      1.0000000000
 S 1 
   1      50.4693993090      1.0000000000
 S 1 
   1      12.5138469110      1.0000000000
 S 1 
   1       5.3447758082      1.0000000000
 S 1 
   1       1.5755631295      1.0000000000
 S 1 
   1       0.6306903307      1.0000000000
 S 1 
   1       0.0879544416      1.0000000000
 S 1 
   1       0.0342969197      1.0000000000
 P 3 
   1    1450.0319327000     -0.0222847647
   2     343.7504988400     -0.1817959329
   3     110.8252170800     -0.8607412073
 P 3 
   1      41.8224645460     -0.2522537814
   2      17.0880737100     -0.4620379520
   3       7.2613218939     -0.3990010670
 P 1 
   1       2.9458145262      1.0000000000
 P 1 
   1       1.1650209680      1.0000000000
 P 1 
   1       0.4339937839      1.0000000000
 D 3 
   1      27.3603358640      0.0575501019
   2       7.4542765527      0.3023798347
   3       2.4632270217      0.7724212088
 D 1 
   1       0.8249954244      1.0000000000
 D 1 
   1       0.2526297057      1.0000000000
 P 1 
   1       0.1112480000      1.0000000000
 P 1 
   1       0.0363780000      1.0000000000
 F 1 
   1       1.8000000000      1.0000000000
  end;

---------------------------------
AUXILIARY/J BASIS SET INFORMATION
---------------------------------
There are 5 groups of distinct atoms

 Group   1 Type V   : 19s5p5d3f3g contracted to 8s5p5d2f3g pattern {121111111/11111/11111/21/111}
 Group   2 Type S   : 14s5p5d2f1g contracted to 8s4p3d1f1g pattern {71111111/2111/311/2/1}
 Group   3 Type O   : 12s5p4d2f1g contracted to 6s4p3d1f1g pattern {711111/2111/211/2/1}
 Group   4 Type C   : 12s5p4d2f1g contracted to 6s4p3d1f1g pattern {711111/2111/211/2/1}
 Group   5 Type H   : 5s2p1d contracted to 3s1p1d pattern {311/2/1}

Atom   0V    basis set group =>   1
Atom   1S    basis set group =>   2
Atom   2S    basis set group =>   2
Atom   3S    basis set group =>   2
Atom   4S    basis set group =>   2
Atom   5O    basis set group =>   3
Atom   6C    basis set group =>   4
Atom   7C    basis set group =>   4
Atom   8C    basis set group =>   4
Atom   9C    basis set group =>   4
Atom  10S    basis set group =>   2
Atom  11S    basis set group =>   2
Atom  12S    basis set group =>   2
Atom  13S    basis set group =>   2
Atom  14C    basis set group =>   4
Atom  15C    basis set group =>   4
Atom  16C    basis set group =>   4
Atom  17C    basis set group =>   4
Atom  18S    basis set group =>   2
Atom  19S    basis set group =>   2
Atom  20S    basis set group =>   2
Atom  21S    basis set group =>   2
Atom  22C    basis set group =>   4
Atom  23C    basis set group =>   4
Atom  24C    basis set group =>   4
Atom  25H    basis set group =>   5
Atom  26H    basis set group =>   5
Atom  27H    basis set group =>   5
Atom  28H    basis set group =>   5
Atom  29H    basis set group =>   5
Atom  30H    basis set group =>   5
Atom  31C    basis set group =>   4
Atom  32C    basis set group =>   4
Atom  33C    basis set group =>   4
Atom  34H    basis set group =>   5
Atom  35H    basis set group =>   5
Atom  36H    basis set group =>   5
Atom  37H    basis set group =>   5
Atom  38H    basis set group =>   5
Atom  39H    basis set group =>   5

-------------------------------------
AUXILIARY/J BASIS SET IN INPUT FORMAT
-------------------------------------

 # Auxiliary/J basis set for element : H 
 NewAuxJGTO H 
 S 3 
   1      15.6752927000      0.1007184237
   2       3.6063578000      0.3404257499
   3       1.2080016000      0.6491996172
 S 1 
   1       0.4726794000      1.0000000000
 S 1 
   1       0.2018100000      1.0000000000
 P 2 
   1       2.0281365000      0.5596620919
   2       0.5358730000      0.5596620919
 D 1 
   1       2.2165124000      1.0000000000
  end;

 # Auxiliary/J basis set for element : C 
 NewAuxJGTO C 
 S 7 
   1    1861.0916331000      0.0134602335
   2     642.9939764000      0.0299160374
   3     235.1105725000      0.1008649584
   4      90.7028894000      0.2370970548
   5      36.7794552000      0.3924037254
   6      15.6046273000      0.3195862154
   7       6.8907294000      0.0530104441
 S 1 
   1       3.1478850000     -1.0000000000
 S 1 
   1       1.4777287000      1.0000000000
 S 1 
   1       0.7076466000      1.0000000000
 S 1 
   1       0.3430122000      1.0000000000
 S 1 
   1       0.1669453000      1.0000000000
 P 2 
   1      13.5472892000     -0.6769313712
   2       5.4669419000     -0.3779500978
 P 1 
   1       2.1751721000      1.0000000000
 P 1 
   1       0.8582194000      1.0000000000
 P 1 
   1       0.3376720000      1.0000000000
 D 2 
   1       5.9287253000     -0.3533329857
   2       1.9809209000     -0.7456525731
 D 1 
   1       0.8055417000     -1.0000000000
 D 1 
   1       0.3531244000     -1.0000000000
 F 2 
   1       1.6755626000      0.6311076882
   2       0.5997536000      0.4968166032
 G 1 
   1       1.0024600000     -1.0000000000
  end;

 # Auxiliary/J basis set for element : O 
 NewAuxJGTO O 
 S 7 
   1    2876.8216605000      0.0168151159
   2    1004.7443032000      0.0340137548
   3     369.7579954000      0.1194951309
   4     142.9442404000      0.2664627624
   5      57.8366425000      0.4202764046
   6      24.3864983000      0.2765077335
   7      10.6622662000      0.0057008815
 S 1 
   1       4.8070437000     -1.0000000000
 S 1 
   1       2.2210770000      1.0000000000
 S 1 
   1       1.0447795000      1.0000000000
 S 1 
   1       0.4968425000      1.0000000000
 S 1 
   1       0.2371384000      1.0000000000
 P 2 
   1      64.2613382000     -0.2731534179
   2      16.3006076000     -0.8168011598
 P 1 
   1       4.3550542000      1.0000000000
 P 1 
   1       1.2019554000      1.0000000000
 P 1 
   1       0.3354196000      1.0000000000
 D 2 
   1       9.2146611000     -0.4661230638
   2       2.8435251000     -0.6600908911
 D 1 
   1       0.9955759000     -1.0000000000
 D 1 
   1       0.3649441000     -1.0000000000
 F 2 
   1       2.6420115000      0.5931563945
   2       0.7345613000      0.5931563945
 G 1 
   1       1.3931000000     -1.0000000000
  end;

 # Auxiliary/J basis set for element : S 
 NewAuxJGTO S 
 S 7 
   1    7399.0303145000      0.0295137551
   2    2710.1675859000      0.0559686311
   3    1034.3279062000      0.1764696370
   4     410.4645411000      0.3577969368
   5     168.9762502000      0.4299293578
   6      71.9687889000      0.1259148089
   7      31.6172683000     -0.0646025788
 S 1 
   1      14.2796836000      1.0000000000
 S 1 
   1       6.6060948000      1.0000000000
 S 1 
   1       3.1181477000      1.0000000000
 S 1 
   1       1.4954039000     -1.0000000000
 S 1 
   1       0.7254779000      1.0000000000
 S 1 
   1       0.3544216000      1.0000000000
 S 1 
   1       0.1735525000      1.0000000000
 P 2 
   1      12.6998799000      1.4059102813
   2       4.4295784000     -1.2124994202
 P 1 
   1       1.5232889000      1.0000000000
 P 1 
   1       0.5194667000     -1.0000000000
 P 1 
   1       0.1766547000     -1.0000000000
 D 3 
   1      16.8546461000      1.0295742104
   2       5.0810461000     -0.7461553923
   3       1.5102323000      0.8357028005
 D 1 
   1       0.4451331000      1.0000000000
 D 1 
   1       0.1308362000      1.0000000000
 F 2 
   1       1.0809860000      0.5572698934
   2       0.4161474000      0.5572698934
 G 1 
   1       0.6707100000     -1.0000000000
  end;

 # Auxiliary/J basis set for element : V 
 NewAuxJGTO V 
 S 12 
   1   11942.0842430000      0.0459866720
   2    2430.7110193000      0.1744615821
   3     841.0764301000      0.2900402792
   4     494.7508273000      0.1411212903
   5     291.0298903000      0.2660697186
   6     171.1940483000      0.0446365706
   7      59.2366916000     -0.0408204801
   8      34.8451117000      0.1394665381
   9      20.4971240000      0.2164746715
  10      12.0571314000      0.0864266611
  11       7.0924300000     -0.0568501658
  12       4.1720176000     -0.0126212852
 S 1 
   1       2.4541279000      1.0000000000
 S 1 
   1       1.4436046000      1.0000000000
 S 1 
   1       0.8491792000      1.0000000000
 S 1 
   1       0.2938336000      1.0000000000
 S 1 
   1       0.1728433000      1.0000000000
 S 1 
   1       0.1016725000      1.0000000000
 S 1 
   1       0.0598074000      1.0000000000
 P 1 
   1      16.7130979000     -1.0000000000
 P 1 
   1       4.7454037000     -1.0000000000
 P 1 
   1       1.3889998000      1.0000000000
 P 1 
   1       0.4142440000     -1.0000000000
 P 1 
   1       0.1243234000      1.0000000000
 D 1 
   1       7.7143225000      1.0000000000
 D 1 
   1       3.1170731000      1.0000000000
 D 1 
   1       1.2767950000     -1.0000000000
 D 1 
   1       0.5273386000      1.0000000000
 D 1 
   1       0.2184050000      1.0000000000
 F 2 
   1       3.1309344000     -1.0825667766
   2       1.0419780000      0.1809223232
 F 1 
   1       0.3559044000      1.0000000000
 G 1 
   1       8.7130110000      1.0000000000
 G 1 
   1       2.7493872000      1.0000000000
 G 1 
   1       0.8775089000      1.0000000000
  end;



           ************************************************************
           *        Program running with 8 parallel MPI-processes     *
           *              working on a common directory               *
           ************************************************************
------------------------------------------------------------------------------
                           ORCA GTO INTEGRAL CALCULATION
                           -- RI-GTO INTEGRALS CHOSEN --
------------------------------------------------------------------------------
------------------------------------------------------------------------------
                   ___                                                        
                  /   \      - P O W E R E D   B Y -                         
                 /     \                                                     
                 |  |  |   _    _      __       _____    __    __             
                 |  |  |  | |  | |    /  \     |  _  \  |  |  /  |          
                  \  \/   | |  | |   /    \    | | | |  |  | /  /          
                 / \  \   | |__| |  /  /\  \   | |_| |  |  |/  /          
                |  |  |   |  __  | /  /__\  \  |    /   |      \           
                |  |  |   | |  | | |   __   |  |    \   |  |\   \          
                \     /   | |  | | |  |  |  |  | |\  \  |  | \   \       
                 \___/    |_|  |_| |__|  |__|  |_| \__\ |__|  \__/        
                                                                              
                      - O R C A' S   B I G   F R I E N D -                    
                                      &                                       
                       - I N T E G R A L  F E E D E R -                       
                                                                              
 v1 FN, 2020, v2 2021                                                         
------------------------------------------------------------------------------


Reading SHARK input file input_52.SHARKINP.tmp ... ok
----------------------
SHARK INTEGRAL PACKAGE
----------------------

Number of atoms                             ...     40
Number of basis functions                   ...    681
Number of shells                            ...    331
Maximum angular momentum                    ...      3
Integral batch strategy                     ... SHARK/LIBINT Hybrid
RI-J (if used) integral strategy            ... SPLIT-RIJ (Revised 2003 algorithm where possible)
Printlevel                                  ...      1
Contraction scheme used                     ... SEGMENTED contraction
Coulomb Range Separation                    ... NOT USED
Exchange Range Separation                   ... NOT USED
Finite Nucleus Model                        ... NOT USED
Auxiliary Coulomb fitting basis             ... AVAILABLE
   # of basis functions in Aux-J            ...   1568
   # of shells in Aux-J                     ...    512
   Maximum angular momentum in Aux-J        ...      4
Auxiliary J/K fitting basis                 ... NOT available
Auxiliary Correlation fitting basis         ... NOT available
Auxiliary 'external' fitting basis          ... NOT available
Integral threshold                          ...     1.000000e-10
Primitive cut-off                           ...     1.000000e-11
Primitive pair pre-selection threshold      ...     1.000000e-11

Calculating pre-screening integrals         ... done (  0.1 sec) Dimension = 331
Organizing shell pair data                  ... done (  0.1 sec)
Shell pair information
Total number of shell pairs                 ...     54946
Shell pairs after pre-screening             ...     22665
Total number of primitive shell pairs       ...    221635
Primitive shell pairs kept                  ...     55326
          la=0 lb=0:   6404 shell pairs
          la=1 lb=0:   9086 shell pairs
          la=1 lb=1:   3198 shell pairs
          la=2 lb=0:   2125 shell pairs
          la=2 lb=1:   1534 shell pairs
          la=2 lb=2:    195 shell pairs
          la=3 lb=0:     55 shell pairs
          la=3 lb=1:     55 shell pairs
          la=3 lb=2:     12 shell pairs
          la=3 lb=3:      1 shell pairs

Calculating one electron integrals          ... done (  0.0 sec)
Calculating RI/J V-Matrix + Cholesky decomp.... done (  0.1 sec)
Calculating Nuclear repulsion               ... done (  0.0 sec) ENN=   5054.228575241240 Eh

SHARK setup successfully completed in   0.6 seconds

Maximum memory used throughout the entire GTOINT-calculation: 39.7 MB


           ************************************************************
           *        Program running with 8 parallel MPI-processes     *
           *              working on a common directory               *
           ************************************************************
-------------------------------------------------------------------------------
                                 ORCA SCF
-------------------------------------------------------------------------------

------------
SCF SETTINGS
------------
Hamiltonian:
 Density Functional     Method          .... DFT(GTOs)
 Exchange Functional    Exchange        .... B88
   X-Alpha parameter    XAlpha          ....  0.666667
   Becke's b parameter  XBeta           ....  0.004200
 Correlation Functional Correlation     .... LYP
 LDA part of GGA corr.  LDAOpt          .... VWN-5
 Gradients option       PostSCFGGA      .... off
 Hybrid DFT is turned on
   Fraction HF Exchange ScalHFX         ....  0.200000
   Scaling of DF-GGA-X  ScalDFX         ....  0.720000
   Scaling of DF-GGA-C  ScalDFC         ....  0.810000
   Scaling of DF-LDA-C  ScalLDAC        ....  1.000000
   Perturbative correction              ....  0.000000
   Density functional embedding theory  .... OFF
   NL short-range parameter             ....  4.800000
 RI-approximation to the Coulomb term is turned on
   Number of AuxJ basis functions       .... 1568
   RIJ-COSX (HFX calculated with COS-X)).... on


General Settings:
 Integral files         IntName         .... input_52
 Hartree-Fock type      HFTyp           .... UHF
 Total Charge           Charge          ....   -2
 Multiplicity           Mult            ....    2
 Number of Electrons    NEL             ....  321
 Basis Dimension        Dim             ....  681
 Nuclear Repulsion      ENuc            ....   5054.2285752412 Eh

Convergence Acceleration:
 DIIS                   CNVDIIS         .... on
   Start iteration      DIISMaxIt       ....    12
   Startup error        DIISStart       ....  0.200000
   # of expansion vecs  DIISMaxEq       ....     5
   Bias factor          DIISBfac        ....   1.050
   Max. coefficient     DIISMaxC        ....  10.000
 Trust-Rad. Augm. Hess. CNVTRAH         .... auto
   Auto Start mean grad. ratio tolernc. ....  1.125000
   Auto Start start iteration           ....    20
   Auto Start num. interpolation iter.  ....    10
   Max. Number of Micro iterations      ....    16
   Max. Number of Macro iterations      .... Maxiter - #DIIS iter
   Number of Davidson start vectors     ....     2
   Converg. threshold I  (grad. norm)   ....   5.000e-05
   Converg. threshold II (energy diff.) ....   1.000e-06
   Grad. Scal. Fac. for Micro threshold ....   0.100
   Minimum threshold for Micro iter.    ....   0.010
   NR start threshold (gradient norm)   ....   0.001
   Initial trust radius                 ....   0.400
   Minimum AH scaling param. (alpha)    ....   1.000
   Maximum AH scaling param. (alpha)    .... 1000.000
   Orbital update algorithm             .... Taylor
   White noise on init. David. guess    .... on
   Maximum white noise                  ....   0.010
   Quad. conv. algorithm                .... NR
 SOSCF                  CNVSOSCF        .... off
 Level Shifting         CNVShift        .... on
   Level shift para.    LevelShift      ....    0.2500
   Turn off err/grad.   ShiftErr        ....    0.0010
 Zerner damping         CNVZerner       .... off
 Static damping         CNVDamp         .... on
   Fraction old density DampFac         ....    0.7000
   Max. Damping (<1)    DampMax         ....    0.9800
   Min. Damping (>=0)   DampMin         ....    0.0000
   Turn off err/grad.   DampErr         ....    0.1000
 Fernandez-Rico         CNVRico         .... off

SCF Procedure:
 Maximum # iterations   MaxIter         ....   125
 SCF integral mode      SCFMode         .... Direct
   Integral package                     .... SHARK and LIBINT hybrid scheme
 Reset frequency        DirectResetFreq ....    20
 Integral Threshold     Thresh          ....  1.000e-10 Eh
 Primitive CutOff       TCut            ....  1.000e-11 Eh

Convergence Tolerance:
 Convergence Check Mode ConvCheckMode   .... Total+1el-Energy
 Convergence forced     ConvForced      .... 0
 Energy Change          TolE            ....  1.000e-06 Eh
 1-El. energy change                    ....  1.000e-03 Eh
 DIIS Error             TolErr          ....  1.000e-06


Diagonalization of the overlap matrix:
Smallest eigenvalue                        ... 8.623e-05
Time for diagonalization                   ...    0.199 sec
Threshold for overlap eigenvalues          ... 1.000e-08
Number of eigenvalues below threshold      ... 0
Time for construction of square roots      ...    0.158 sec
Total time needed                          ...    0.362 sec

Time for model grid setup =    0.353 sec

------------------------------
INITIAL GUESS: MODEL POTENTIAL
------------------------------
Loading Hartree-Fock densities                     ... done
Calculating cut-offs                               ... done
Initializing the effective Hamiltonian             ... done
Setting up the integral package (SHARK)            ... done
Starting the Coulomb interaction                   ... done (   0.3 sec)
Reading the grid                                   ... done
Mapping shells                                     ... done
Starting the XC term evaluation                    ... done (   0.1 sec)
  promolecular density results
     # of electrons  =    318.989676366
     EX              =   -428.194248040
     EC              =    -12.531090064
     EX+EC           =   -440.725338104
Transforming the Hamiltonian                       ... done (   0.2 sec)
Diagonalizing the Hamiltonian                      ... done (   0.2 sec)
Back transforming the eigenvectors                 ... done (   0.1 sec)
Now organizing SCF variables                       ... done
                      ------------------
                      INITIAL GUESS DONE (   1.3 sec)
                      ------------------
-------------------
DFT GRID GENERATION
-------------------

General Integration Accuracy     IntAcc      ... 4.388
Radial Grid Type                 RadialGrid  ... OptM3 with GC (2021)
Angular Grid (max. ang.)         AngularGrid ... 4 (Lebedev-302)
Angular grid pruning method      GridPruning ... 4 (adaptive)
Weight generation scheme         WeightScheme... Becke
Basis function cutoff            BFCut       ... 1.0000e-10
Integration weight cutoff        WCut        ... 1.0000e-14
Angular grids for H and He will be reduced by one unit
Partially contracted basis set               ... off
Rotationally invariant grid construction     ... off

Total number of grid points                  ...   237384
Total number of batches                      ...     3730
Average number of points per batch           ...       63
Average number of grid points per atom       ...     5935
Time for grid setup =    1.796 sec

--------------------
COSX GRID GENERATION
--------------------

GRIDX 1
-------
General Integration Accuracy     IntAcc      ... 3.816
Radial Grid Type                 RadialGrid  ... OptM3 with GC (2021)
Angular Grid (max. ang.)         AngularGrid ... 1 (Lebedev-50)
Angular grid pruning method      GridPruning ... 4 (adaptive)
Weight generation scheme         WeightScheme... Becke
Basis function cutoff            BFCut       ... 1.0000e-10
Integration weight cutoff        WCut        ... 1.0000e-14
Angular grids for H and He will be reduced by one unit
Partially contracted basis set               ... on
Rotationally invariant grid construction     ... off

Total number of grid points                  ...    29182
Total number of batches                      ...      478
Average number of points per batch           ...       61
Average number of grid points per atom       ...      730
UseSFitting                                  ... on

GRIDX 2
-------
General Integration Accuracy     IntAcc      ... 4.020
Radial Grid Type                 RadialGrid  ... OptM3 with GC (2021)
Angular Grid (max. ang.)         AngularGrid ... 2 (Lebedev-110)
Angular grid pruning method      GridPruning ... 4 (adaptive)
Weight generation scheme         WeightScheme... Becke
Basis function cutoff            BFCut       ... 1.0000e-10
Integration weight cutoff        WCut        ... 1.0000e-14
Angular grids for H and He will be reduced by one unit
Partially contracted basis set               ... on
Rotationally invariant grid construction     ... off

Total number of grid points                  ...    64117
Total number of batches                      ...     1020
Average number of points per batch           ...       62
Average number of grid points per atom       ...     1603
UseSFitting                                  ... on

GRIDX 3
-------
General Integration Accuracy     IntAcc      ... 4.338
Radial Grid Type                 RadialGrid  ... OptM3 with GC (2021)
Angular Grid (max. ang.)         AngularGrid ... 3 (Lebedev-194)
Angular grid pruning method      GridPruning ... 4 (adaptive)
Weight generation scheme         WeightScheme... Becke
Basis function cutoff            BFCut       ... 1.0000e-10
Integration weight cutoff        WCut        ... 1.0000e-14
Angular grids for H and He will be reduced by one unit
Partially contracted basis set               ... on
Rotationally invariant grid construction     ... off

Total number of grid points                  ...   147378
Total number of batches                      ...     2322
Average number of points per batch           ...       63
Average number of grid points per atom       ...     3684
UseSFitting                                  ... on

Time for X-Grid setup             =    1.898 sec

--------------
SCF ITERATIONS
--------------
ITER       Energy         Delta-E        Max-DP      RMS-DP      [F,P]     Damp
               ***  Starting incremental Fock matrix formation  ***
  0  -6336.8625432796   0.000000000000 0.11358186  0.00074120  0.2299317 0.7000
  1  -6337.1971076226  -0.334564343083 0.15314929  0.00075354  0.1558741 0.7000
                               ***Turning on DIIS***
  2  -6337.3600704147  -0.162962792104 0.07380979  0.00039397  0.1090833 0.7000
  3  -6337.4492364776  -0.089166062841 0.05038677  0.00057049  0.0771932 0.0000
  4  -6337.6669049435  -0.217668465939 0.09584878  0.00040381  0.0128649 0.0000
  5  -6337.6725647479  -0.005659804408 0.01579558  0.00009098  0.0119774 0.0000
  6  -6337.6739902769  -0.001425529020 0.00349511  0.00003930  0.0040784 0.0000
  7  -6337.6743868837  -0.000396606751 0.00182708  0.00002384  0.0014882 0.0000
  8  -6337.6745651995  -0.000178315820 0.00340532  0.00002109  0.0017477 0.0000
  9  -6337.6746809708  -0.000115771264 0.00738500  0.00004736  0.0009956 0.0000
               *** Restarting incremental Fock matrix formation ***
                                   *** Resetting DIIS ***
 10  -6337.6748267906  -0.000145819836 0.00120619  0.00001545  0.0009080 0.0000
 11  -6337.6747873647   0.000039425901 0.00052020  0.00000407  0.0027826 0.0000
 12  -6337.6748402247  -0.000052859973 0.00040235  0.00000313  0.0010235 0.0000
 13  -6337.6748487449  -0.000008520188 0.00094304  0.00000535  0.0004541 0.0000
 14  -6337.6748529177  -0.000004172841 0.00025491  0.00000291  0.0002261 0.0000
 15  -6337.6748538899  -0.000000972178 0.00014983  0.00000179  0.0001367 0.0000
 16  -6337.6748545928  -0.000000702923 0.00012692  0.00000130  0.0000913 0.0000
 17  -6337.6748549385  -0.000000345697 0.00014115  0.00000070  0.0000463 0.0000
 18  -6337.6748549865  -0.000000047970 0.00008856  0.00000053  0.0000127 0.0000
 19  -6337.6748548116   0.000000174849 0.00003457  0.00000025  0.0000312 0.0000
 20  -6337.6748549140  -0.000000102387 0.00001726  0.00000013  0.0000239 0.0000
 21  -6337.6748546533   0.000000260755 0.00003386  0.00000017  0.0000081 0.0000
                 **** Energy Check signals convergence ****

               *****************************************************
               *                     SUCCESS                       *
               *           SCF CONVERGED AFTER  22 CYCLES          *
               *****************************************************

Old exchange energy                            =    -85.901518749 Eh
New exchange energy                            =    -85.901501569 Eh
Exchange energy change after final integration =      0.000017179 Eh
Total energy after final integration           =  -6337.674837612 Eh
Final COS-X integration done in                =    21.378 sec

----------------
TOTAL SCF ENERGY
----------------

Total Energy       :        -6337.67483761 Eh         -172456.89987 eV

Components:
Nuclear Repulsion  :         5054.22857524 Eh          137532.55155 eV
Electronic Energy  :       -11391.90341285 Eh         -309989.45142 eV
One Electron Energy:       -18878.61694254 Eh         -513713.28369 eV
Two Electron Energy:         7486.71352969 Eh          203723.83226 eV
Max COSX asymmetry :            0.00000136 Eh               0.00004 eV

Virial components:
Potential Energy   :       -12658.57102634 Eh         -344457.22949 eV
Kinetic Energy     :         6320.89618872 Eh          172000.32962 eV
Virial Ratio       :            2.00265447


DFT components:
N(Alpha)           :      161.000005281226 electrons
N(Beta)            :      160.000006726095 electrons
N(Total)           :      321.000012007320 electrons
E(X)               :     -341.381502506162 Eh       
E(C)               :      -14.714755838318 Eh       
E(XC)              :     -356.096258344480 Eh       
DFET-embed. en.    :        0.000000000000 Eh       

---------------
SCF CONVERGENCE
---------------

  Last Energy change         ...   -1.3758e-07  Tolerance :   1.0000e-06
  Last MAX-Density change    ...    0.0000e+00  Tolerance :   1.0000e-05
  Last RMS-Density change    ...    0.0000e+00  Tolerance :   1.0000e-06
  Last DIIS Error            ...    4.3195e-06  Tolerance :   1.0000e-06

             **** THE GBW FILE WAS UPDATED (input_52.gbw) ****
             **** DENSITY input_52.scfp WAS UPDATED ****
             **** ENERGY FILE WAS UPDATED (input_52.en.tmp) ****
----------------------
UHF SPIN CONTAMINATION
----------------------

Warning: in a DFT calculation there is little theoretical justification to 
         calculate <S**2> as in Hartree-Fock theory. We will do it anyways
         but you should keep in mind that the values have only limited relevance

Expectation value of <S**2>     :     0.765683
Ideal value S*(S+1) for S=0.5   :     0.750000
Deviation                       :     0.015683

             **** THE GBW FILE WAS UPDATED (input_52.gbw) ****
             **** DENSITY input_52.scfp WAS UPDATED ****
----------------
ORBITAL ENERGIES
----------------
                 SPIN UP ORBITALS
  NO   OCC          E(Eh)            E(eV) 
   0   1.0000    -196.677449     -5351.8655 
   1   1.0000     -88.738901     -2414.7083 
   2   1.0000     -88.738778     -2414.7049 
   3   1.0000     -88.734364     -2414.5848 
   4   1.0000     -88.734349     -2414.5844 
   5   1.0000     -88.731697     -2414.5122 
   6   1.0000     -88.731536     -2414.5078 
   7   1.0000     -88.724673     -2414.3211 
   8   1.0000     -88.724621     -2414.3197 
   9   1.0000     -88.644183     -2412.1308 
  10   1.0000     -88.643711     -2412.1180 
  11   1.0000     -88.641885     -2412.0683 
  12   1.0000     -88.641719     -2412.0638 
  13   1.0000     -22.052819      -600.0877 
  14   1.0000     -18.893055      -514.1062 
  15   1.0000     -18.559302      -505.0243 
  16   1.0000     -18.554075      -504.8821 
  17   1.0000     -18.553981      -504.8795 
  18   1.0000     -10.087384      -274.4917 
  19   1.0000     -10.077163      -274.2135 
  20   1.0000     -10.064526      -273.8697 
  21   1.0000     -10.064469      -273.8681 
  22   1.0000     -10.062223      -273.8070 
  23   1.0000     -10.062181      -273.8059 
  24   1.0000     -10.052277      -273.5364 
  25   1.0000     -10.050221      -273.4804 
  26   1.0000     -10.049628      -273.4643 
  27   1.0000     -10.048323      -273.4288 
  28   1.0000     -10.026180      -272.8262 
  29   1.0000     -10.025420      -272.8055 
  30   1.0000     -10.020039      -272.6591 
  31   1.0000     -10.019096      -272.6335 
  32   1.0000      -7.790612      -211.9933 
  33   1.0000      -7.790505      -211.9904 
  34   1.0000      -7.787812      -211.9171 
  35   1.0000      -7.787798      -211.9167 
  36   1.0000      -7.784955      -211.8394 
  37   1.0000      -7.784826      -211.8359 
  38   1.0000      -7.778145      -211.6541 
  39   1.0000      -7.778090      -211.6526 
  40   1.0000      -7.698373      -209.4834 
  41   1.0000      -7.697969      -209.4724 
  42   1.0000      -7.696233      -209.4251 
  43   1.0000      -7.695944      -209.4173 
  44   1.0000      -5.755512      -156.6154 
  45   1.0000      -5.755413      -156.6127 
  46   1.0000      -5.752797      -156.5416 
  47   1.0000      -5.752788      -156.5413 
  48   1.0000      -5.751322      -156.5014 
  49   1.0000      -5.751212      -156.4984 
  50   1.0000      -5.749904      -156.4628 
  51   1.0000      -5.749767      -156.4591 
  52   1.0000      -5.749385      -156.4487 
  53   1.0000      -5.749383      -156.4487 
  54   1.0000      -5.746598      -156.3729 
  55   1.0000      -5.746492      -156.3700 
  56   1.0000      -5.745472      -156.3423 
  57   1.0000      -5.745344      -156.3388 
  58   1.0000      -5.743467      -156.2877 
  59   1.0000      -5.743400      -156.2858 
  60   1.0000      -5.742603      -156.2642 
  61   1.0000      -5.742587      -156.2637 
  62   1.0000      -5.740769      -156.2143 
  63   1.0000      -5.740642      -156.2108 
  64   1.0000      -5.739301      -156.1743 
  65   1.0000      -5.739262      -156.1733 
  66   1.0000      -5.733011      -156.0032 
  67   1.0000      -5.732954      -156.0016 
  68   1.0000      -5.663673      -154.1164 
  69   1.0000      -5.663249      -154.1048 
  70   1.0000      -5.661520      -154.0578 
  71   1.0000      -5.661266      -154.0509 
  72   1.0000      -5.656975      -153.9341 
  73   1.0000      -5.656586      -153.9235 
  74   1.0000      -5.655797      -153.9021 
  75   1.0000      -5.655372      -153.8905 
  76   1.0000      -5.654862      -153.8766 
  77   1.0000      -5.654626      -153.8702 
  78   1.0000      -5.653558      -153.8411 
  79   1.0000      -5.653253      -153.8328 
  80   1.0000      -2.446498       -66.5726 
  81   1.0000      -1.487916       -40.4883 
  82   1.0000      -1.476098       -40.1667 
  83   1.0000      -1.475286       -40.1446 
  84   1.0000      -0.710815       -19.3423 
  85   1.0000      -0.698861       -19.0170 
  86   1.0000      -0.686961       -18.6932 
  87   1.0000      -0.678425       -18.4609 
  88   1.0000      -0.652543       -17.7566 
  89   1.0000      -0.632686       -17.2162 
  90   1.0000      -0.624873       -17.0037 
  91   1.0000      -0.618400       -16.8275 
  92   1.0000      -0.608158       -16.5488 
  93   1.0000      -0.575999       -15.6737 
  94   1.0000      -0.575116       -15.6497 
  95   1.0000      -0.574753       -15.6398 
  96   1.0000      -0.567092       -15.4314 
  97   1.0000      -0.497700       -13.5431 
  98   1.0000      -0.497205       -13.5296 
  99   1.0000      -0.492306       -13.3963 
 100   1.0000      -0.482878       -13.1398 
 101   1.0000      -0.480786       -13.0829 
 102   1.0000      -0.477885       -13.0039 
 103   1.0000      -0.447870       -12.1872 
 104   1.0000      -0.441239       -12.0067 
 105   1.0000      -0.416512       -11.3339 
 106   1.0000      -0.411533       -11.1984 
 107   1.0000      -0.356546        -9.7021 
 108   1.0000      -0.349178        -9.5016 
 109   1.0000      -0.327802        -8.9200 
 110   1.0000      -0.321404        -8.7459 
 111   1.0000      -0.319092        -8.6829 
 112   1.0000      -0.309617        -8.4251 
 113   1.0000      -0.305205        -8.3050 
 114   1.0000      -0.295351        -8.0369 
 115   1.0000      -0.293488        -7.9862 
 116   1.0000      -0.291013        -7.9189 
 117   1.0000      -0.258567        -7.0360 
 118   1.0000      -0.258243        -7.0271 
 119   1.0000      -0.255733        -6.9588 
 120   1.0000      -0.249418        -6.7870 
 121   1.0000      -0.235600        -6.4110 
 122   1.0000      -0.231844        -6.3088 
 123   1.0000      -0.226181        -6.1547 
 124   1.0000      -0.224742        -6.1155 
 125   1.0000      -0.219862        -5.9828 
 126   1.0000      -0.216012        -5.8780 
 127   1.0000      -0.215517        -5.8645 
 128   1.0000      -0.208018        -5.6605 
 129   1.0000      -0.194761        -5.2997 
 130   1.0000      -0.187568        -5.1040 
 131   1.0000      -0.184915        -5.0318 
 132   1.0000      -0.179119        -4.8741 
 133   1.0000      -0.178090        -4.8461 
 134   1.0000      -0.160337        -4.3630 
 135   1.0000      -0.151121        -4.1122 
 136   1.0000      -0.138361        -3.7650 
 137   1.0000      -0.137528        -3.7423 
 138   1.0000      -0.135652        -3.6913 
 139   1.0000      -0.132003        -3.5920 
 140   1.0000      -0.125692        -3.4203 
 141   1.0000      -0.124018        -3.3747 
 142   1.0000      -0.116021        -3.1571 
 143   1.0000      -0.111113        -3.0235 
 144   1.0000      -0.101045        -2.7496 
 145   1.0000      -0.099540        -2.7086 
 146   1.0000      -0.097141        -2.6433 
 147   1.0000      -0.085409        -2.3241 
 148   1.0000      -0.077354        -2.1049 
 149   1.0000      -0.068675        -1.8687 
 150   1.0000      -0.062486        -1.7003 
 151   1.0000      -0.054409        -1.4805 
 152   1.0000      -0.048089        -1.3086 
 153   1.0000      -0.040654        -1.1062 
 154   1.0000      -0.040082        -1.0907 
 155   1.0000      -0.033804        -0.9198 
 156   1.0000      -0.028388        -0.7725 
 157   1.0000      -0.021804        -0.5933 
 158   1.0000      -0.018480        -0.5029 
 159   1.0000       0.016469         0.4481 
 160   1.0000       0.037535         1.0214 
 161   0.0000       0.103505         2.8165 
 162   0.0000       0.135643         3.6910 
 163   0.0000       0.159915         4.3515 
 164   0.0000       0.160925         4.3790 
 165   0.0000       0.165516         4.5039 
 166   0.0000       0.169367         4.6087 
 167   0.0000       0.169633         4.6160 
 168   0.0000       0.172879         4.7043 
 169   0.0000       0.174814         4.7569 
 170   0.0000       0.175043         4.7632 
 171   0.0000       0.175948         4.7878 
 172   0.0000       0.188190         5.1209 
 173   0.0000       0.189310         5.1514 
 174   0.0000       0.197403         5.3716 
 175   0.0000       0.200139         5.4461 
 176   0.0000       0.202085         5.4990 
 177   0.0000       0.202430         5.5084 
 178   0.0000       0.206870         5.6292 
 179   0.0000       0.209410         5.6983 
 180   0.0000       0.212505         5.7826 
 181   0.0000       0.215987         5.8773 
 182   0.0000       0.218981         5.9588 
 183   0.0000       0.222280         6.0485 
 184   0.0000       0.226262         6.1569 
 185   0.0000       0.228786         6.2256 
 186   0.0000       0.234621         6.3844 
 187   0.0000       0.235843         6.4176 
 188   0.0000       0.237993         6.4761 
 189   0.0000       0.242539         6.5998 
 190   0.0000       0.243550         6.6273 
 191   0.0000       0.245586         6.6827 
 192   0.0000       0.251187         6.8351 
 193   0.0000       0.255054         6.9404 
 194   0.0000       0.260174         7.0797 
 195   0.0000       0.266808         7.2602 
 196   0.0000       0.268945         7.3184 
 197   0.0000       0.270243         7.3537 
 198   0.0000       0.271527         7.3886 
 199   0.0000       0.274449         7.4681 
 200   0.0000       0.286808         7.8044 
 201   0.0000       0.289601         7.8804 
 202   0.0000       0.300718         8.1829 
 203   0.0000       0.306739         8.3468 
 204   0.0000       0.308947         8.4069 
 205   0.0000       0.320950         8.7335 
 206   0.0000       0.330215         8.9856 
 207   0.0000       0.331639         9.0244 
 208   0.0000       0.334772         9.1096 
 209   0.0000       0.341159         9.2834 
 210   0.0000       0.347238         9.4488 
 211   0.0000       0.347377         9.4526 
 212   0.0000       0.348281         9.4772 
 213   0.0000       0.350717         9.5435 
 214   0.0000       0.353692         9.6244 
 215   0.0000       0.364574         9.9206 
 216   0.0000       0.365630         9.9493 
 217   0.0000       0.374625        10.1941 
 218   0.0000       0.377701        10.2778 
 219   0.0000       0.379083        10.3154 
 220   0.0000       0.386200        10.5090 
 221   0.0000       0.391406        10.6507 
 222   0.0000       0.391998        10.6668 
 223   0.0000       0.398316        10.8387 
 224   0.0000       0.400689        10.9033 
 225   0.0000       0.406062        11.0495 
 226   0.0000       0.406992        11.0748 
 227   0.0000       0.414800        11.2873 
 228   0.0000       0.419611        11.4182 
 229   0.0000       0.420900        11.4533 
 230   0.0000       0.422027        11.4839 
 231   0.0000       0.425145        11.5688 
 232   0.0000       0.429445        11.6858 
 233   0.0000       0.433152        11.7867 
 234   0.0000       0.435786        11.8583 
 235   0.0000       0.437845        11.9144 
 236   0.0000       0.444000        12.0818 
 237   0.0000       0.447472        12.1763 
 238   0.0000       0.452927        12.3248 
 239   0.0000       0.463975        12.6254 
 240   0.0000       0.465450        12.6655 
 241   0.0000       0.466869        12.7041 
 242   0.0000       0.469636        12.7794 
 243   0.0000       0.470315        12.7979 
 244   0.0000       0.472831        12.8664 
 245   0.0000       0.475862        12.9489 
 246   0.0000       0.479856        13.0575 
 247   0.0000       0.480613        13.0781 
 248   0.0000       0.486511        13.2386 
 249   0.0000       0.492561        13.4033 
 250   0.0000       0.493747        13.4355 
 251   0.0000       0.496988        13.5237 
 252   0.0000       0.498869        13.5749 
 253   0.0000       0.502348        13.6696 
 254   0.0000       0.503201        13.6928 
 255   0.0000       0.508947        13.8491 
 256   0.0000       0.511481        13.9181 
 257   0.0000       0.516264        14.0483 
 258   0.0000       0.519597        14.1389 
 259   0.0000       0.522773        14.2254 
 260   0.0000       0.523439        14.2435 
 261   0.0000       0.524197        14.2641 
 262   0.0000       0.526332        14.3222 
 263   0.0000       0.530021        14.4226 
 264   0.0000       0.530749        14.4424 
 265   0.0000       0.539304        14.6752 
 266   0.0000       0.540327        14.7030 
 267   0.0000       0.542623        14.7655 
 268   0.0000       0.546060        14.8591 
 269   0.0000       0.546985        14.8842 
 270   0.0000       0.549493        14.9525 
 271   0.0000       0.552790        15.0422 
 272   0.0000       0.562126        15.2962 
 273   0.0000       0.564256        15.3542 
 274   0.0000       0.567235        15.4352 
 275   0.0000       0.571101        15.5404 
 276   0.0000       0.572799        15.5867 
 277   0.0000       0.574230        15.6256 
 278   0.0000       0.577734        15.7209 
 279   0.0000       0.580703        15.8017 
 280   0.0000       0.581620        15.8267 
 281   0.0000       0.583054        15.8657 
 282   0.0000       0.591377        16.0922 
 283   0.0000       0.593891        16.1606 
 284   0.0000       0.597739        16.2653 
 285   0.0000       0.601237        16.3605 
 286   0.0000       0.603795        16.4301 
 287   0.0000       0.607598        16.5336 
 288   0.0000       0.611949        16.6520 
 289   0.0000       0.614163        16.7122 
 290   0.0000       0.615409        16.7461 
 291   0.0000       0.620999        16.8982 
 292   0.0000       0.623657        16.9706 
 293   0.0000       0.628641        17.1062 
 294   0.0000       0.631927        17.1956 
 295   0.0000       0.632793        17.2192 
 296   0.0000       0.633867        17.2484 
 297   0.0000       0.641476        17.4555 
 298   0.0000       0.642836        17.4925 
 299   0.0000       0.654218        17.8022 
 300   0.0000       0.660449        17.9717 
 301   0.0000       0.661053        17.9882 
 302   0.0000       0.675149        18.3717 
 303   0.0000       0.691534        18.8176 
 304   0.0000       0.697364        18.9762 
 305   0.0000       0.706642        19.2287 
 306   0.0000       0.711438        19.3592 
 307   0.0000       0.717374        19.5207 
 308   0.0000       0.720471        19.6050 
 309   0.0000       0.730290        19.8722 
 310   0.0000       0.745434        20.2843 
 311   0.0000       0.751331        20.4448 
 312   0.0000       0.763166        20.7668 
 313   0.0000       0.764289        20.7974 
 314   0.0000       0.771848        21.0030 
 315   0.0000       0.773170        21.0390 
 316   0.0000       0.773920        21.0594 
 317   0.0000       0.783788        21.3280 
 318   0.0000       0.793081        21.5808 
 319   0.0000       0.796218        21.6662 
 320   0.0000       0.809098        22.0167 
 321   0.0000       0.819511        22.3000 
 322   0.0000       0.820706        22.3325 
 323   0.0000       0.837085        22.7782 
 324   0.0000       0.840042        22.8587 
 325   0.0000       0.842086        22.9143 
 326   0.0000       0.847903        23.0726 
 327   0.0000       0.858611        23.3640 
 328   0.0000       0.861393        23.4397 
 329   0.0000       0.869362        23.6565 
 330   0.0000       0.870434        23.6857 
 331   0.0000       0.871462        23.7137 
 332   0.0000       0.871906        23.7258 
 333   0.0000       0.881426        23.9848 
 334   0.0000       0.889134        24.1946 
 335   0.0000       0.896456        24.3938 
 336   0.0000       0.897954        24.4346 
 337   0.0000       0.900286        24.4980 
 338   0.0000       0.911506        24.8034 
 339   0.0000       0.919839        25.0301 
 340   0.0000       0.921087        25.0640 
 341   0.0000       0.929231        25.2857 
 342   0.0000       0.934133        25.4191 
 343   0.0000       0.936835        25.4926 
 344   0.0000       0.939204        25.5570 
 345   0.0000       0.942870        25.6568 
 346   0.0000       0.947124        25.7725 
 347   0.0000       0.951782        25.8993 
 348   0.0000       0.966130        26.2897 
 349   0.0000       0.974107        26.5068 
 350   0.0000       0.975745        26.5514 
 351   0.0000       0.978877        26.6366 
 352   0.0000       0.984827        26.7985 
 353   0.0000       0.992560        27.0089 
 354   0.0000       1.006327        27.3835 
 355   0.0000       1.009137        27.4600 
 356   0.0000       1.012465        27.5506 
 357   0.0000       1.014547        27.6072 
 358   0.0000       1.017054        27.6754 
 359   0.0000       1.018947        27.7269 
 360   0.0000       1.031819        28.0772 
 361   0.0000       1.033188        28.1145 
 362   0.0000       1.035790        28.1853 
 363   0.0000       1.047466        28.5030 
 364   0.0000       1.052244        28.6330 
 365   0.0000       1.054774        28.7019 
 366   0.0000       1.059126        28.8203 
 367   0.0000       1.065805        29.0020 
 368   0.0000       1.072590        29.1866 
 369   0.0000       1.076636        29.2968 
 370   0.0000       1.079197        29.3664 
 371   0.0000       1.081317        29.4241 
 372   0.0000       1.095067        29.7983 
 373   0.0000       1.097711        29.8702 
 374   0.0000       1.102444        29.9990 
 375   0.0000       1.105421        30.0800 
 376   0.0000       1.112431        30.2708 
 377   0.0000       1.115841        30.3636 
 378   0.0000       1.118542        30.4371 
 379   0.0000       1.128985        30.7212 
 380   0.0000       1.136621        30.9290 
 381   0.0000       1.140965        31.0472 
 382   0.0000       1.146853        31.2074 
 383   0.0000       1.159701        31.5571 
 384   0.0000       1.160863        31.5887 
 385   0.0000       1.174655        31.9640 
 386   0.0000       1.203184        32.7403 
 387   0.0000       1.208132        32.8750 
 388   0.0000       1.228579        33.4313 
 389   0.0000       1.236489        33.6466 
 390   0.0000       1.239552        33.7299 
 391   0.0000       1.247674        33.9509 
 392   0.0000       1.268589        34.5201 
 393   0.0000       1.280813        34.8527 
 394   0.0000       1.290825        35.1251 
 395   0.0000       1.303898        35.4809 
 396   0.0000       1.311914        35.6990 
 397   0.0000       1.316188        35.8153 
 398   0.0000       1.325725        36.0748 
 399   0.0000       1.330843        36.2141 
 400   0.0000       1.335340        36.3365 
 401   0.0000       1.345586        36.6152 
 402   0.0000       1.354191        36.8494 
 403   0.0000       1.392742        37.8984 
 404   0.0000       1.400949        38.1218 
 405   0.0000       1.410070        38.3700 
 406   0.0000       1.425629        38.7933 
 407   0.0000       1.428322        38.8666 
 408   0.0000       1.428954        38.8838 
 409   0.0000       1.434581        39.0369 
 410   0.0000       1.440555        39.1995 
 411   0.0000       1.445871        39.3441 
 412   0.0000       1.452753        39.5314 
[...]
Total number of batches                      ...      302
Average number of points per batch           ...       58
Average number of grid points per atom       ...      444

Memory available               ... 822.0 MB
Memory needed per perturbation ...  41.3 MB
Perturbations treated per batch... 3
Number of batches              ... 1
     CP-SCF ITERATION   0:   4.0931e-02 (   4.7 sec   0/  3 done)
     CP-SCF ITERATION   1:   1.5292e-03 (   4.9 sec   1/  3 done)
     CP-SCF ITERATION   2:   1.4048e-04 (   3.9 sec   3/  3 done)
                    *** THE CP-SCF HAS CONVERGED ***

Forming final perturbed densities           ... done
Transforming perturbed density to AO basis  ... done

 Raw HFC matrix (all values in MHz): 
 -----------------------------------
                -0.0446               0.0084              -0.0832
                 0.0082              -0.0739              -0.0204
                -0.0827              -0.0205               0.1435

 A(FC)           0.0082               0.0082               0.0082
 A(SD)          -0.0840              -0.0857               0.1697
 A(ORB+DIA)      0.0005               0.0011              -0.0011    A(PC) =   0.0001
 A(ORB)          0.0005               0.0011              -0.0011    A(PC) =   0.0001
 A(DIA)         -0.0000              -0.0000               0.0000    A(PC) =  -0.0000
             ----------           ----------           ----------
 A(Tot)         -0.0753              -0.0764               0.1768    A(iso)=    0.0083
 Orientation: 
  X           0.6594687            0.6636609            0.3530654
  Y           0.6831264           -0.7250987            0.0870071
  Z           0.3137505            0.1838098           -0.9315442

Notes:  (1) The A matrix conforms to the "SAI" spin Hamiltonian convention.
        (2) Tensor is right-handed.

 Raw EFG matrix (all values in a.u.**-3):
 -----------------------------------
             0.0042       0.1520      -0.1438
             0.1520       0.0129      -0.1399
            -0.1438      -0.1399      -0.0171

 V(El)       0.5491       0.8171      -1.3662
 V(Nuc)     -0.6895      -0.9678       1.6573
         ----------   ----------   ----------
 V(Tot)     -0.1404      -0.1507       0.2911 
 Orientation: 
  X       0.3867842    0.7094303   -0.5891576
  Y      -0.8007031   -0.0585701   -0.5961914
  Z      -0.4574632    0.7023377    0.5453890

Note: Tensor is right-handed


 Quadrupole tensor eigenvalues (in MHz;Q= 0.0029 I=  1.0)
  e**2qQ            =     0.195494 MHz 
  e**2qQ/(4I*(2I-1))=     0.048874 MHz 
  eta               =     0.035482
  NOTE: the diagonal representation of the SH term I*Q*I = e**2qQ/(4I(2I-1))*[-(1-eta),-(1+eta),2]

 RHO(0)=      0.443770032 a.u.**-3

 -----------------------------------------------------------
 Nucleus  39H : A:ISTP=    1 I=  0.5 P=533.5514 MHz/au**3
                Q:ISTP=    2 I=  1.0 Q=  0.0029 barn     
 -----------------------------------------------------------
 Solving for nuclear perturbation:
Forming RHS of the CP-SCF equations         ... 
Calc. nucleus orbit integrals (SHARK)       ... done

------------------------------------------------------------------------------
                           ORCA CP-SCF CALCULATION
------------------------------------------------------------------------------

Input orbitals are from        ... input_52.gbw
Input Perturbation             ... input_52.pin.tmp
Wavefunction output            ... input_52.pout.tmp
Perturbation mode              ... Imaginary perturbation
Solver                         ... POPLE
Max. number of iterations      ... 64
Convergence tolerance          ... 1.000e-03
Integral handling              ... Direct
DFT GridXC                     ... 1
COSX GridX                     ... 1
COSX IntAccX                   ... 3.067
COSX Algorithm                 ... Auto
Number of perturbations        ... 3
Number of operators            ... 2
Orbital ranges used for CP-SCF:
 Operator 0:  Orbitals   0...160  to 161...680
 Operator 1:  Orbitals   0...159  to 160...680
Variables per perturbation     ... 167080
DFT calculation                         ... on
XC functional terms                     ... off
Hybrid DFT                              ... on
   Exchange mixing (SCF)                ...  0.200
   Exchange mixing (CP-SCF)             ...  0.200
   GGA exch. scaling(SCF)               ...  0.720
   GGA exch. scaling (CP-SCF)           ...  0.720
   GGA corr. scaling (SCF)              ...  0.810
   GGA corr. scaling (CP-SCF)           ...  0.810

CP-SCF GRID
-----------

General Integration Accuracy     IntAcc      ... 3.467
Radial Grid Type                 RadialGrid  ... OptM3 with GC (2021)
Angular Grid (max. ang.)         AngularGrid ... 1 (Lebedev-50)
Angular grid pruning method      GridPruning ... 4 (adaptive)
Weight generation scheme         WeightScheme... Becke
Basis function cutoff            BFCut       ... 1.0000e-10
Integration weight cutoff        WCut        ... 1.0000e-14
Angular grids for H and He will be reduced by one unit
Partially contracted basis set               ... off
Rotationally invariant grid construction     ... off

Total number of grid points                  ...    39344
Total number of batches                      ...      636
Average number of points per batch           ...       61
Average number of grid points per atom       ...      984

CP-SCF GRIDX
------------

General Integration Accuracy     IntAcc      ... 3.067
Radial Grid Type                 RadialGrid  ... OptM3 with GC (2021)
Angular Grid (max. ang.)         AngularGrid ... 1 (Lebedev-50)
Angular grid pruning method      GridPruning ... 4 (adaptive)
Weight generation scheme         WeightScheme... Becke
Basis function cutoff            BFCut       ... 1.0000e-10
Integration weight cutoff        WCut        ... 1.0000e-14
Angular grids for H and He will be reduced by one unit
Partially contracted basis set               ... on
Rotationally invariant grid construction     ... off

Total number of grid points                  ...    17777
Total number of batches                      ...      302
Average number of points per batch           ...       58
Average number of grid points per atom       ...      444

Memory available               ... 819.8 MB
Memory needed per perturbation ...  41.3 MB
Perturbations treated per batch... 3
Number of batches              ... 1
     CP-SCF ITERATION   0:   4.3801e-02 (   4.8 sec   0/  3 done)
     CP-SCF ITERATION   1:   1.8441e-03 (   4.9 sec   1/  3 done)
     CP-SCF ITERATION   2:   1.8040e-04 (   4.0 sec   3/  3 done)
                    *** THE CP-SCF HAS CONVERGED ***

Forming final perturbed densities           ... done
Transforming perturbed density to AO basis  ... done

 Raw HFC matrix (all values in MHz): 
 -----------------------------------
                -0.0738              -0.0054              -0.1444
                -0.0054              -0.1392               0.0095
                -0.1438               0.0093               0.1949

 A(FC)          -0.0064              -0.0064              -0.0064
 A(SD)          -0.1314              -0.1343               0.2657
 A(ORB+DIA)      0.0018               0.0008              -0.0015    A(PC) =   0.0004
 A(ORB)          0.0018               0.0009              -0.0015    A(PC) =   0.0004
 A(DIA)         -0.0000              -0.0001               0.0000    A(PC) =  -0.0000
             ----------           ----------           ----------
 A(Tot)         -0.1360              -0.1399               0.2579    A(iso)=   -0.0060
 Orientation: 
  X          -0.8600584            0.3177799            0.3991435
  Y           0.3353939            0.9416899           -0.0270372
  Z          -0.3844613            0.1106167           -0.9164898

Notes:  (1) The A matrix conforms to the "SAI" spin Hamiltonian convention.
        (2) Tensor is right-handed.

 Raw EFG matrix (all values in a.u.**-3):
 -----------------------------------
            -0.0209      -0.0842       0.1771
            -0.0842      -0.0856      -0.1182
             0.1771      -0.1182       0.1065

 V(El)       0.6363       0.4510      -1.0872
 V(Nuc)     -0.7781      -0.5965       1.3747
         ----------   ----------   ----------
 V(Tot)     -0.1419      -0.1456       0.2874 
 Orientation: 
  X       0.0114087   -0.8437275    0.5366505
  Y       0.9059889   -0.2183900   -0.3626154
  Z       0.4231477    0.4903364    0.7619162

Note: Tensor is right-handed


 Quadrupole tensor eigenvalues (in MHz;Q= 0.0029 I=  1.0)
  e**2qQ            =     0.192999 MHz 
  e**2qQ/(4I*(2I-1))=     0.048250 MHz 
  eta               =     0.012922
  NOTE: the diagonal representation of the SH term I*Q*I = e**2qQ/(4I(2I-1))*[-(1-eta),-(1+eta),2]

 RHO(0)=      0.442333211 a.u.**-3

 -----------------------------------------------------------
 Nucleus   0V : A:ISTP=   51 I=  3.5 P=140.5173 MHz/au**3
                Q:ISTP=   51 I=  3.5 Q= -0.0430 barn     
 -----------------------------------------------------------
 Solving for nuclear perturbation:
Forming RHS of the CP-SCF equations         ... 
Calc. nucleus orbit integrals (SHARK)       ... done

------------------------------------------------------------------------------
                           ORCA CP-SCF CALCULATION
------------------------------------------------------------------------------

Input orbitals are from        ... input_52.gbw
Input Perturbation             ... input_52.pin.tmp
Wavefunction output            ... input_52.pout.tmp
Perturbation mode              ... Imaginary perturbation
Solver                         ... POPLE
Max. number of iterations      ... 64
Convergence tolerance          ... 1.000e-03
Integral handling              ... Direct
DFT GridXC                     ... 1
COSX GridX                     ... 1
COSX IntAccX                   ... 3.067
COSX Algorithm                 ... Auto
Number of perturbations        ... 3
Number of operators            ... 2
Orbital ranges used for CP-SCF:
 Operator 0:  Orbitals   0...160  to 161...680
 Operator 1:  Orbitals   0...159  to 160...680
Variables per perturbation     ... 167080
DFT calculation                         ... on
XC functional terms                     ... off
Hybrid DFT                              ... on
   Exchange mixing (SCF)                ...  0.200
   Exchange mixing (CP-SCF)             ...  0.200
   GGA exch. scaling(SCF)               ...  0.720
   GGA exch. scaling (CP-SCF)           ...  0.720
   GGA corr. scaling (SCF)              ...  0.810
   GGA corr. scaling (CP-SCF)           ...  0.810

CP-SCF GRID
-----------

General Integration Accuracy     IntAcc      ... 3.467
Radial Grid Type                 RadialGrid  ... OptM3 with GC (2021)
Angular Grid (max. ang.)         AngularGrid ... 1 (Lebedev-50)
Angular grid pruning method      GridPruning ... 4 (adaptive)
Weight generation scheme         WeightScheme... Becke
Basis function cutoff            BFCut       ... 1.0000e-10
Integration weight cutoff        WCut        ... 1.0000e-14
Angular grids for H and He will be reduced by one unit
Partially contracted basis set               ... off
Rotationally invariant grid construction     ... off

Total number of grid points                  ...    39344
Total number of batches                      ...      636
Average number of points per batch           ...       61
Average number of grid points per atom       ...      984

CP-SCF GRIDX
------------

General Integration Accuracy     IntAcc      ... 3.067
Radial Grid Type                 RadialGrid  ... OptM3 with GC (2021)
Angular Grid (max. ang.)         AngularGrid ... 1 (Lebedev-50)
Angular grid pruning method      GridPruning ... 4 (adaptive)
Weight generation scheme         WeightScheme... Becke
Basis function cutoff            BFCut       ... 1.0000e-10
Integration weight cutoff        WCut        ... 1.0000e-14
Angular grids for H and He will be reduced by one unit
Partially contracted basis set               ... on
Rotationally invariant grid construction     ... off

Total number of grid points                  ...    17777
Total number of batches                      ...      302
Average number of points per batch           ...       58
Average number of grid points per atom       ...      444

Memory available               ... 817.7 MB
Memory needed per perturbation ...  41.3 MB
Perturbations treated per batch... 3
Number of batches              ... 1
     CP-SCF ITERATION   0:   1.1669e+01 (   5.1 sec   0/  3 done)
     CP-SCF ITERATION   1:   2.0073e+00 (   4.9 sec   0/  3 done)
     CP-SCF ITERATION   2:   3.3920e-01 (   4.9 sec   0/  3 done)
     CP-SCF ITERATION   3:   3.8806e-02 (   4.9 sec   0/  3 done)
     CP-SCF ITERATION   4:   8.0891e-03 (   4.9 sec   0/  3 done)
     CP-SCF ITERATION   5:   2.1267e-03 (   5.0 sec   1/  3 done)
     CP-SCF ITERATION   6:   3.4973e-04 (   4.0 sec   3/  3 done)
                    *** THE CP-SCF HAS CONVERGED ***

Forming final perturbed densities           ... done
Transforming perturbed density to AO basis  ... done

 Raw HFC matrix (all values in MHz): 
 -----------------------------------
              -270.4840             142.7036             -39.3340
               142.6977            -193.8508              30.3640
               -40.3016              31.0694             -97.8701

 A(FC)        -175.5422            -175.5422            -175.5422
 A(SD)          98.0607              93.8822            -191.9428
 A(ORB+DIA)     -6.9264              -7.5173             -21.1346    A(PC) = -11.8594
 A(ORB)         -6.9260              -7.5178             -21.1344    A(PC) = -11.8594
 A(DIA)         -0.0004               0.0005              -0.0002    A(PC) =  -0.0000
             ----------           ----------           ----------
 A(Tot)        -84.4079             -89.1773            -388.6196    A(iso)= -187.4016
 Orientation: 
  X           0.6044638           -0.1514393            0.7821059
  Y           0.7961144            0.0794251           -0.5999113
  Z           0.0287313            0.9852704            0.1685726

Notes:  (1) The A matrix conforms to the "SAI" spin Hamiltonian convention.
        (2) Tensor is right-handed.

 Raw EFG matrix (all values in a.u.**-3):
 -----------------------------------
             0.1274      -0.1214       0.0878
            -0.1214       0.0330      -0.0499
             0.0878      -0.0499      -0.1604

 V(El)       0.1773      -0.4733       0.2960
 V(Nuc)     -0.2269       0.2869      -0.0600
         ----------   ----------   ----------
 V(Tot)     -0.0496      -0.1864       0.2360 
 Orientation: 
  X       0.5458894   -0.2359006    0.8039625
  Y       0.8360072    0.0896267   -0.5413493
  Z       0.0556481    0.9676352    0.2461409

Note: Tensor is right-handed


 Quadrupole tensor eigenvalues (in MHz;Q=-0.0430 I=  3.5)
  e**2qQ            =    -2.384345 MHz 
  e**2qQ/(4I*(2I-1))=    -0.028385 MHz 
  eta               =     0.579988
  NOTE: the diagonal representation of the SH term I*Q*I = e**2qQ/(4I(2I-1))*[-(1-eta),-(1+eta),2]

 RHO(0)=   8115.203367884 a.u.**-3


--------------------------------------------------------------------------------
----------------------------------------------------------------------------
                           ORCA EULER ANGLE PROGRAM
----------------------------------------------------------------------------

Only g-tensor available        -->  using g-tensor as reference tensor

Reference tensor               ...  g

g-tensor ordering              ...  |g_min> --> |gx>
                                    |g_mid> --> |gy>
                                    |g_max> --> |gz>

A- and EFG-tensor ordering     ...  the axes |Ax>, |Qx>, |Ay>, etc. are assigned
                                    such that the Euler rotation is minimal. You
                                    can find the respective eigenvalues as Ax,
                                    EFGx, Ay, etc. in the tables below.
                                    The relation of |Ax>, |Ay>,  etc. to Amin, Amid, etc.
                                    (as printed in the ORCA EPR/NMR CALCULATION Output)
                                    is obtained in the detailed printout.

Euler rotation around          ...  z - y - z
   First rotation              -->  by alpha around z
   Second rotation             -->  by beta around y'
   Third rotation              -->  by gamma around z''
   Positive / Negative angle   -->  clockwise / counterclockwise rotation

Plot EFG-tensors                    (-)
Plot HFC-tensors                    (-)
Detailed Printout                   (-)

-------------------------------------------------------------------------
          Euler rotation of hyperfine tensor to g-tensor
-------------------------------------------------------------------------

-------------------------------------------------------------------
 Atom  |   Alpha    Beta    Gamma   |   Ax       Ay       Az 
       |          [degrees]         |           [MHz]         
-------------------------------------------------------------------
 25H      -23.7     13.7     -2.2      -0.13     0.24    -0.12
 26H      -24.9     17.8      6.0      -0.08     0.16    -0.08
 27H      159.9     12.8    177.1      -0.08     0.12    -0.08
 28H       72.1      4.6    -85.1      -0.08     0.13    -0.08
 29H      143.8     28.1   -164.9      -0.08     0.16    -0.08
 30H      127.5     18.0   -154.4      -0.12     0.24    -0.12
 34H      -17.0      9.1     13.5      -0.14     0.26    -0.14
 35H     -144.2     12.0    147.1      -0.08     0.18    -0.07
 36H      144.8     10.0   -136.6      -0.07     0.14    -0.07
 37H      158.2     17.5   -160.6      -0.07     0.14    -0.07
 38H       65.2     21.4    -59.4      -0.08     0.18    -0.08
 39H      134.3     22.2   -138.7      -0.14     0.26    -0.14
  0V      104.2      4.6    -96.2    -388.62   -89.18   -84.41
-------------------------------------------------------------------


-------------------------------------------------------------------------------
    Euler rotation of Electric Field Gradient (EFG) tensor to g-tensor
-------------------------------------------------------------------------------

-------------------------------------------------------------------
 Atom  |   Alpha    Beta    Gamma  |   EFGx     EFGy     EFGz
       |          [degrees]        |         [a.u.**-3]       
-------------------------------------------------------------------
 25H       25.3     24.2     18.1     -0.14     0.27    -0.13
 26H      134.8     45.0    -98.5     -0.13    -0.14     0.27
 27H      134.2      4.3   -107.7      0.27    -0.14    -0.13
 28H      150.8      4.3   -108.2     -0.14     0.27    -0.13
 29H      -47.6     36.6     83.7     -0.13    -0.14     0.27
 30H     -168.5     30.3   -149.2     -0.14     0.27    -0.13
 34H      -86.5     31.9     55.1      0.29    -0.15    -0.14
 35H       57.2     43.5    -92.4     -0.15    -0.14     0.29
 36H       86.9      7.4   -119.6      0.29    -0.15    -0.14
 37H      159.8      7.3   -119.3      0.28    -0.15    -0.14
 38H     -136.0     31.0     98.5     -0.15    -0.14     0.29
 39H      -91.9     43.8     59.2      0.29    -0.14    -0.15
  0V      121.8      8.2   -118.3      0.24    -0.19    -0.05
-------------------------------------------------------------------


Maximum memory used throughout the entire EPRNMR-calculation: 305.4 MB

Timings for individual modules:

Sum of individual times         ...     3745.268 sec (=  62.421 min)
GTO integral calculation        ...        1.338 sec (=   0.022 min)   0.0 %
Spin-Orbit-Coupling Matrices    ...       10.232 sec (=   0.171 min)   0.3 %
SCF iterations                  ...      227.326 sec (=   3.789 min)   6.1 %
EPR/NMR calculation             ...     3506.372 sec (=  58.440 min)  93.6 %
                             ****ORCA TERMINATED NORMALLY****
TOTAL RUN TIME: 0 days 1 hours 2 minutes 26 seconds 344 msec
