
                                 *****************
                                 * O   R   C   A *
                                 *****************

                                            #,                                       
                                            ###                                      
                                            ####                                     
                                            #####                                    
                                            ######                                   
                                           ########,                                 
                                     ,,################,,,,,                         
                               ,,#################################,,                 
                          ,,##########################################,,             
                       ,#########################################, ''#####,          
                    ,#############################################,,   '####,        
                  ,##################################################,,,,####,       
                ,###########''''           ''''###############################       
              ,#####''   ,,,,##########,,,,          '''####'''          '####       
            ,##' ,,,,###########################,,,                        '##       
           ' ,,###''''                  '''############,,,                           
         ,,##''                                '''############,,,,        ,,,,,,###''
      ,#''                                            '''#######################'''  
     '                                                          ''''####''''         
             ,#######,   #######,   ,#######,      ##                                
            ,#'     '#,  ##    ##  ,#'     '#,    #''#        ######   ,####,        
            ##       ##  ##   ,#'  ##            #'  '#       #        #'  '#        
            ##       ##  #######   ##           ,######,      #####,   #    #        
            '#,     ,#'  ##    ##  '#,     ,#' ,#      #,         ##   #,  ,#        
             '#######'   ##     ##  '#######'  #'      '#     #####' # '####'        



                  #######################################################
                  #                        -***-                        #
                  #          Department of theory and spectroscopy      #
                  #    Directorship and core code : Frank Neese         #
                  #        Max Planck Institute fuer Kohlenforschung    #
                  #                Kaiser Wilhelm Platz 1               #
                  #                 D-45470 Muelheim/Ruhr               #
                  #                      Germany                        #
                  #                                                     #
                  #                  All rights reserved                #
                  #                        -***-                        #
                  #######################################################


                         Program Version 5.0.4 -  RELEASE  -


 With contributions from (in alphabetic order):
   Daniel Aravena         : Magnetic Suceptibility
   Michael Atanasov       : Ab Initio Ligand Field Theory (pilot matlab implementation)
   Alexander A. Auer      : GIAO ZORA, VPT2 properties, NMR spectrum
   Ute Becker             : Parallelization
   Giovanni Bistoni       : ED, misc. LED, open-shell LED, HFLD
   Martin Brehm           : Molecular dynamics
   Dmytro Bykov           : SCF Hessian
   Vijay G. Chilkuri      : MRCI spin determinant printing, contributions to CSF-ICE
   Dipayan Datta          : RHF DLPNO-CCSD density
   Achintya Kumar Dutta   : EOM-CC, STEOM-CC
   Dmitry Ganyushin       : Spin-Orbit,Spin-Spin,Magnetic field MRCI
   Miquel Garcia          : C-PCM and meta-GGA Hessian, CC/C-PCM, Gaussian charge scheme
   Yang Guo               : DLPNO-NEVPT2, F12-NEVPT2, CIM, IAO-localization
   Andreas Hansen         : Spin unrestricted coupled pair/coupled cluster methods
   Benjamin Helmich-Paris : MC-RPA, TRAH-SCF, COSX integrals
   Lee Huntington         : MR-EOM, pCC
   Robert Izsak           : Overlap fitted RIJCOSX, COSX-SCS-MP3, EOM
   Marcus Kettner         : VPT2
   Christian Kollmar      : KDIIS, OOCD, Brueckner-CCSD(T), CCSD density, CASPT2, CASPT2-K
   Simone Kossmann        : Meta GGA functionals, TD-DFT gradient, OOMP2, MP2 Hessian
   Martin Krupicka        : Initial AUTO-CI
   Lucas Lang             : DCDCAS
   Marvin Lechner         : AUTO-CI (C++ implementation), FIC-MRCC
   Dagmar Lenk            : GEPOL surface, SMD
   Dimitrios Liakos       : Extrapolation schemes; Compound Job, initial MDCI parallelization
   Dimitrios Manganas     : Further ROCIS development; embedding schemes
   Dimitrios Pantazis     : SARC Basis sets
   Anastasios Papadopoulos: AUTO-CI, single reference methods and gradients
   Taras Petrenko         : DFT Hessian,TD-DFT gradient, ASA, ECA, R-Raman, ABS, FL, XAS/XES, NRVS
   Peter Pinski           : DLPNO-MP2, DLPNO-MP2 Gradient
   Christoph Reimann      : Effective Core Potentials
   Marius Retegan         : Local ZFS, SOC
   Christoph Riplinger    : Optimizer, TS searches, QM/MM, DLPNO-CCSD(T), (RO)-DLPNO pert. Triples
   Tobias Risthaus        : Range-separated hybrids, TD-DFT gradient, RPA, STAB
   Michael Roemelt        : Original ROCIS implementation
   Masaaki Saitow         : Open-shell DLPNO-CCSD energy and density
   Barbara Sandhoefer     : DKH picture change effects
   Avijit Sen             : IP-ROCIS
   Kantharuban Sivalingam : CASSCF convergence, NEVPT2, FIC-MRCI
   Bernardo de Souza      : ESD, SOC TD-DFT
   Georgi Stoychev        : AutoAux, RI-MP2 NMR, DLPNO-MP2 response
   Willem Van den Heuvel  : Paramagnetic NMR
   Boris Wezisla          : Elementary symmetry handling
   Frank Wennmohs         : Technical directorship


 We gratefully acknowledge several colleagues who have allowed us to
 interface, adapt or use parts of their codes:
   Stefan Grimme, W. Hujo, H. Kruse, P. Pracht,  : VdW corrections, initial TS optimization,
                  C. Bannwarth, S. Ehlert          DFT functionals, gCP, sTDA/sTD-DF
   Ed Valeev, F. Pavosevic, A. Kumar             : LibInt (2-el integral package), F12 methods
   Garnet Chan, S. Sharma, J. Yang, R. Olivares  : DMRG
   Ulf Ekstrom                                   : XCFun DFT Library
   Mihaly Kallay                                 : mrcc  (arbitrary order and MRCC methods)
   Jiri Pittner, Ondrej Demel                    : Mk-CCSD
   Frank Weinhold                                : gennbo (NPA and NBO analysis)
   Christopher J. Cramer and Donald G. Truhlar   : smd solvation model
   Lars Goerigk                                  : TD-DFT with DH, B97 family of functionals
   V. Asgeirsson, H. Jonsson                     : NEB implementation
   FAccTs GmbH                                   : IRC, NEB, NEB-TS, DLPNO-Multilevel, CI-OPT
                                                   MM, QMMM, 2- and 3-layer-ONIOM, Crystal-QMMM,
                                                   LR-CPCM, SF, NACMEs, symmetry and pop. for TD-DFT,
                                                   nearIR, NL-DFT gradient (VV10), updates on ESD,
                                                   ML-optimized integration grids
   S Lehtola, MJT Oliveira, MAL Marques          : LibXC Library
   Liviu Ungur et al                             : ANISO software


 Your calculation uses the libint2 library for the computation of 2-el integrals
 For citations please refer to: http://libint.valeyev.net

 Your ORCA version has been built with support for libXC version: 5.1.0
 For citations please refer to: https://tddft.org/programs/libxc/

 This ORCA versions uses:
   CBLAS   interface :  Fast vector & matrix operations
   LAPACKE interface :  Fast linear algebra routines
   SCALAPACK package :  Parallel linear algebra routines
   Shared memory     :  Shared parallel matrices
   BLAS/LAPACK       :  OpenBLAS 0.3.15  USE64BITINT DYNAMIC_ARCH NO_AFFINITY Prescott SINGLE_THREADED
        Core in use  :  Prescott
   Copyright (c) 2011-2014, The OpenBLAS Project


================================================================================

----- Orbital basis set information -----
Your calculation utilizes the basis: TZVP 

The basis set includes element-specific modifications.

Your calculation utilizes the basis: CP(PPP) 

----- AuxJ basis set information -----
Your calculation utilizes the auxiliary basis: def2/J
   F. Weigend, Phys. Chem. Chem. Phys. 8, 1057 (2006).

================================================================================
                                        WARNINGS
                       Please study these warnings very carefully!
================================================================================


WARNING: your system is open-shell and RHF/RKS was chosen
  ===> : WILL SWITCH to UHF/UKS


INFO   : the flag for use of the SHARK integral package has been found!

================================================================================
                                       INPUT FILE
================================================================================
NAME = input_87.inp
|  1> ! nofrozencore ReducedPop printbasis
|  2> ! B3LYP TZVP
|  3> 
|  4> %basis
|  5> newgto V "CP(PPP)" end
|  6> end
|  7> 
|  8> %pal
|  9> nprocs 8
| 10> end
| 11> 
| 12> % sym SymThresh 1e-2 end
| 13> * xyz -2 2 
| 14> V 0.22939797817392674 -0.3194740296204785 1.0412136083603443
| 15> S 2.492098524745373 -0.2946080558033519 0.042088457642274583
| 16> S 0.3699818756339728 2.1506082391443515 0.9630519836233132
| 17> S -0.10498889373446726 -2.433950735431784 -0.20293683750490135
| 18> S -2.1811499602646816 -0.00680526017719936 0.6209150448115252
| 19> O 0.396616394876043 -0.7014062306888446 2.574650192387773
| 20> C -1.3225118608161799 2.542100370722237 1.2355624668337861
| 21> C -2.3457469620480067 1.6770462096348042 1.0948082640211867
| 22> C 2.5580925100198657 -1.8888084870758388 -0.6946675939156386
| 23> C 1.5185124616786192 -2.7422582989133266 -0.7948557485416625
| 24> S -1.761634760847943 4.231104600156182 1.6622240047991126
| 25> S -3.9955687983567607 2.340038862061124 1.3375364052090644
| 26> S 1.8348292077507344 -4.291696096924524 -1.6450945575527316
| 27> S 4.108129086752118 -2.4320101866219557 -1.4214301886192793
| 28> C -3.5136850082102407 4.0038403269017655 1.6824756995641157
| 29> C 3.5180662013082795 -3.967091724460717 -2.0612898186775244
| 30> C -4.407988479472809 5.00905710733765 1.9489249588966155
| 31> C 4.296204901236652 -4.830697429665141 -2.8018100283187968
| 32> S -3.8788151807187297 6.66172182338651 2.3479456975279107
| 33> S -6.165486953738337 4.7234299548051855 1.950247922061564
| 34> S 5.988870854180907 -4.4608487907799494 -3.1994922483677803
| 35> S 3.649418422329713 -6.358116746557607 -3.44282445567665
| 36> C 3.806028472528464 -6.00139874289434 -5.202960562515334
| 37> C 5.834301570081826 -4.364042232142641 -4.993280923882234
| 38> C 5.254967927861037 -5.643636042767423 -5.704770432880042
| 39> H 3.270103030851083 -5.128691791644326 -5.701057909218576
| 40> H 3.5635112787159504 -6.806278486896768 -5.959326426384064
| 41> H 5.321411020776949 -5.5831617280092205 -6.800920944462868
| 42> H 5.890439677975654 -6.47566420973483 -5.366164140241934
| 43> H 6.762235190959654 -4.229409611851989 -5.624653221355949
| 44> H 5.160870533475181 -3.604890959468216 -5.509427333646657
| 45> C -6.507250927787087 5.101415793370868 3.7114247992724256
| 46> C -4.546116396614895 6.754824991145875 4.053652507516565
| 47> C -6.069510676284441 6.514162029327363 4.16107230230247
| 48> H -4.081048554587161 6.037961395051501 4.746974950943366
| 49> H -4.3652086279019695 7.748022994888906 4.487663204874552
| 50> H -6.570887559724177 7.24404270824252 3.515620941321948
| 51> H -6.4038156957132975 6.6958248631404444 5.191825243589893
| 52> H -7.584149745106017 5.036254489693045 3.9197542910759053
| 53> H -6.025586268946322 4.4017586850228225 4.410826826657864
| 54> * 
| 55> 
| 56> % eprnmr
| 57> gtensor true
| 58> Nuclei = all H {aiso,adip,aorb,fgrad,rho}
| 59> Nuclei = all V {aiso,adip,aorb,fgrad,rho}
| 60> end
| 61> 
| 62>                          ****END OF INPUT****
================================================================================

------------------------------------------------------------------------------
                            SYMMETRY HANDLING SETUP
------------------------------------------------------------------------------

------------------
SYMMETRY DETECTION
------------------
The point group will now be determined using a tolerance of 1.0000e-02.
Splitting atom subsets according to nuclear charge, mass and basis set.
Splitting atom subsets according to distance from the molecule's center.
Identifying relative distance patterns of the atoms.
Splitting atom subsets according to atoms' relative distance patterns.
Bring atoms of each subset into input order.
The molecule is neither linear nor planar.
There is at least one atom subset not centered around the molecule's center.
The molecule does not have a center of inversion.
Analyzing the first atom subset for its symmetry.
The subset is an off-center atom pair.
Testing point group C2v.
Test failed.
Testing point group C2.
Test failed.
Testing point group Cs.
Test failed.
Testing point group Cs.
Test failed.
No testing is needed for point group C1.
This point group has been found:    C1
Largest non-degenerate subgroup:    C1


Mass-centered symmetry-perfected Cartesians (point group C1):

Atom          Symmetry-perfected Cartesians (x, y, z; au)
  0       0.429938387294   -0.598916035156    1.963516376449
  1       4.705822743388   -0.551926154588    0.075443468079
  2       0.695603452333    4.068862981065    1.815812311514
  3      -0.201961223391   -4.594697925695   -0.387587235632
  4      -4.125337049043   -0.008057690278    1.169267196862
  5       0.745935399409   -1.320663296901    4.861291563997
  6      -2.502746192935    4.808675893332    2.330782493404
  7      -4.436380304878    3.173960437868    2.064795597890
  8       4.830533302043   -3.564528372272   -1.316823696874
  9       2.866011716390   -5.177314785692   -1.506151870980
 10      -3.332568213128    8.000431325997    3.137055952037
 11      -7.554091745265    4.426834979755    2.523485309731
 12       3.463763738039   -8.105327885479   -3.112870368443
 13       7.759677929628   -4.591030819895   -2.690205965242
 14      -6.643463353512    7.570964089521    3.175326108890
 15       6.644620674348   -7.491914519649   -3.899365430204
 16      -8.333451994813    9.470548509767    3.678842237615
 17       8.115089711418   -9.123892790177   -5.298745823060
 18      -7.333459382784   12.593632214294    4.432882155383
 19     -11.654642791959    8.930791415069    3.681342275682
 20      11.313764798695   -8.424980151681   -6.050256307283
 21       6.892840399160  -12.010296990765   -6.510087538659
 22       7.188790503856  -11.336197656802   -9.836262739010
 23      11.021671183032   -8.242042267889   -9.440025646134
 24       9.926889259067  -10.660124132630  -10.784545965298
 25       6.176038190885   -9.687020523771  -10.777530312312
 26       6.730499424783  -12.857199943708  -11.265587078769
 27      10.052448508169  -10.545844239601  -12.855970233747
 28      11.127756832628  -12.232429503907  -10.144672804990
 29      12.775211596949   -7.987623486847  -10.633146376904
 30       9.749070953763   -6.807454268316  -10.415401005596
 31     -12.300483105352    9.645081132459    7.009484247005
 32      -8.594475929661   12.769571703560    7.656200891026
 33     -11.473273912218   12.314784615144    7.859194884533
 34      -7.715625074535   11.414895831564    8.966390431604
 35      -8.252609791295   14.646443927391    8.476362248225
 36     -12.420738911798   13.694059208735    6.639468579513
 37     -12.105018844134   12.658077619763    9.807035655300
 38     -14.335526944029    9.521944113978    7.403169932133
 39     -11.390268811755    8.322920810030    8.331162536273


------------------
SYMMETRY REDUCTION
------------------
ORCA supports only abelian point groups.
It is now checked, if the determined point group is supported:
Point Group ( C1    ) is          ... supported

The point group is C1 - hence turning off symmetry
If this is a round-off problem, please increase the symmetry
        detection tolerance (%method SymThresh)

Storing the symmetry object:
Symmetry file                     ... input_87.sym.tmp
Writing symmetry information      ... done

                       ****************************
                       * Single Point Calculation *
                       ****************************

---------------------------------
CARTESIAN COORDINATES (ANGSTROEM)
---------------------------------
  V      0.227514   -0.316933    1.039048
  S      2.490214   -0.292067    0.039923
  S      0.368097    2.153150    0.960886
  S     -0.106873   -2.431409   -0.205102
  S     -2.183034   -0.004264    0.618750
  O      0.394732   -0.698865    2.572485
  C     -1.324396    2.544642    1.233397
  C     -2.347631    1.679588    1.092643
  C      2.556208   -1.886267   -0.696833
  C      1.516628   -2.739717   -0.797021
  S     -1.763519    4.233646    1.660059
  S     -3.997453    2.342580    1.335371
  S      1.832945   -4.289155   -1.647260
  S      4.106245   -2.429469   -1.423596
  C     -3.515569    4.006382    1.680310
  C      3.516182   -3.964550   -2.063455
  C     -4.409873    5.011598    1.946759
  C      4.294321   -4.828156   -2.803976
  S     -3.880700    6.664263    2.345780
  S     -6.167371    4.725971    1.948082
  S      5.986986   -4.458307   -3.201658
  S      3.647534   -6.355575   -3.444990
  C      3.804144   -5.998857   -5.205126
  C      5.832417   -4.361501   -4.995446
  C      5.253084   -5.641095   -5.706936
  H      3.268219   -5.126150   -5.703223
  H      3.561627   -6.803737   -5.961492
  H      5.319527   -5.580620   -6.803086
  H      5.888555   -6.473123   -5.368330
  H      6.760351   -4.226868   -5.626819
  H      5.158986   -3.602350   -5.511593
  C     -6.509135    5.103957    3.709259
  C     -4.548001    6.757366    4.051487
  C     -6.071395    6.516703    4.158907
  H     -4.082933    6.040503    4.744809
  H     -4.367093    7.750564    4.485498
  H     -6.572772    7.246584    3.513455
  H     -6.405700    6.698366    5.189660
  H     -7.586034    5.038796    3.917589
  H     -6.027471    4.404300    4.408661

----------------------------
CARTESIAN COORDINATES (A.U.)
----------------------------
  NO LB      ZA    FRAG     MASS         X           Y           Z
   0 V    23.0000    0    50.940    0.429938   -0.598916    1.963516
   1 S    16.0000    0    32.060    4.705823   -0.551926    0.075443
   2 S    16.0000    0    32.060    0.695603    4.068863    1.815812
   3 S    16.0000    0    32.060   -0.201961   -4.594698   -0.387587
   4 S    16.0000    0    32.060   -4.125337   -0.008058    1.169267
   5 O     8.0000    0    15.999    0.745935   -1.320663    4.861292
   6 C     6.0000    0    12.011   -2.502746    4.808676    2.330782
   7 C     6.0000    0    12.011   -4.436380    3.173960    2.064796
   8 C     6.0000    0    12.011    4.830533   -3.564528   -1.316824
   9 C     6.0000    0    12.011    2.866012   -5.177315   -1.506152
  10 S    16.0000    0    32.060   -3.332568    8.000431    3.137056
  11 S    16.0000    0    32.060   -7.554092    4.426835    2.523485
  12 S    16.0000    0    32.060    3.463764   -8.105328   -3.112870
  13 S    16.0000    0    32.060    7.759678   -4.591031   -2.690206
  14 C     6.0000    0    12.011   -6.643463    7.570964    3.175326
  15 C     6.0000    0    12.011    6.644621   -7.491915   -3.899365
  16 C     6.0000    0    12.011   -8.333452    9.470549    3.678842
  17 C     6.0000    0    12.011    8.115090   -9.123893   -5.298746
  18 S    16.0000    0    32.060   -7.333459   12.593632    4.432882
  19 S    16.0000    0    32.060  -11.654643    8.930791    3.681342
  20 S    16.0000    0    32.060   11.313765   -8.424980   -6.050256
  21 S    16.0000    0    32.060    6.892840  -12.010297   -6.510088
  22 C     6.0000    0    12.011    7.188791  -11.336198   -9.836263
  23 C     6.0000    0    12.011   11.021671   -8.242042   -9.440026
  24 C     6.0000    0    12.011    9.926889  -10.660124  -10.784546
  25 H     1.0000    0     1.008    6.176038   -9.687021  -10.777530
  26 H     1.0000    0     1.008    6.730499  -12.857200  -11.265587
  27 H     1.0000    0     1.008   10.052449  -10.545844  -12.855970
  28 H     1.0000    0     1.008   11.127757  -12.232430  -10.144673
  29 H     1.0000    0     1.008   12.775212   -7.987623  -10.633146
  30 H     1.0000    0     1.008    9.749071   -6.807454  -10.415401
  31 C     6.0000    0    12.011  -12.300483    9.645081    7.009484
  32 C     6.0000    0    12.011   -8.594476   12.769572    7.656201
  33 C     6.0000    0    12.011  -11.473274   12.314785    7.859195
  34 H     1.0000    0     1.008   -7.715625   11.414896    8.966390
  35 H     1.0000    0     1.008   -8.252610   14.646444    8.476362
  36 H     1.0000    0     1.008  -12.420739   13.694059    6.639469
  37 H     1.0000    0     1.008  -12.105019   12.658078    9.807036
  38 H     1.0000    0     1.008  -14.335527    9.521944    7.403170
  39 H     1.0000    0     1.008  -11.390269    8.322921    8.331163

--------------------------------
INTERNAL COORDINATES (ANGSTROEM)
--------------------------------
 V      0   0   0     0.000000000000     0.00000000     0.00000000
 S      1   0   0     2.473597207895     0.00000000     0.00000000
 S      1   2   0     2.475314017710    85.71385042     0.00000000
 S      1   2   3     2.476032441522    85.93784068   148.62714714
 S      1   2   3     2.466810492400   145.46537631    75.87795814
 O      1   2   3     1.589107284714   107.21303750   255.26899642
 C      3   1   2     1.758426313631    99.35835505   165.58475170
 C      7   3   1     1.347271509243   124.88060172   342.87668425
 C      2   1   3     1.757452616906   101.21899073   202.39693860
 C      9   2   1     1.348755324202   125.18279561     8.19423655
 S      7   3   1     1.796553443780   118.77522964   165.81840508
 S      8   7   3     1.794544036589   116.54440600   183.45842240
 S     10   9   2     1.795472028771   116.45185810   177.94583647
 S      9   2   1     1.796069415323   118.44955895   186.34566834
 C     12   8   7     1.766190934866    97.10066353     0.25830960
 C     13  10   9     1.764050246021    96.95170471   358.19127172
 C     15  12   8     1.371581088445   123.39757204   179.52661398
 C     16  13  10     1.378290546755   123.37850004   182.66971119
 S     17  15  12     1.780601750433   122.00480561   177.82121103
 S     17  15  12     1.780557639489   121.74623660   359.20769506
 S     18  16  13     1.777654969921   121.83053631   179.91592339
 S     18  16  13     1.778269387633   121.77053923     1.35254341
 C     22  18  16     1.802735021171    98.64968900   116.15231763
 C     21  18  16     1.803036601344    98.74900700   243.68493663
 C     24  21  18     1.574549176943   115.94193582   303.06276404
 H     23  22  18     1.138830307197   122.53365977   299.48788213
 H     23  22  18     1.130811793194   119.57685703   174.78637276
 H     25  24  21     1.099826245998   112.54727028   188.40793149
 H     25  24  21     1.100340600557   105.24591768   306.10922978
 H     24  21  18     1.130406000169   119.45195358   185.56498477
 H     24  21  18     1.138519710932   122.51573559    60.93896075
 C     20  17  15     1.833417546806    98.72174782   116.83644231
 C     19  17  15     1.833956061149    98.47666120   243.28897596
 C     32  20  17     1.545849711963   114.52187163    57.07282797
 H     33  19  17     1.100398802095   113.52518646    64.05990352
 H     33  19  17     1.098879056512   110.69053313   182.72159930
 H     34  32  20     1.095770068989   107.92871054    57.03751928
 H     34  32  20     1.098732386515   109.74416007   174.08692510
 H     32  20  17     1.098798541770   110.64604923   176.85775720
 H     32  20  17     1.100310914582   113.44693892   295.46839762

---------------------------
INTERNAL COORDINATES (A.U.)
---------------------------
 V      0   0   0     0.000000000000     0.00000000     0.00000000
 S      1   0   0     4.674421288554     0.00000000     0.00000000
 S      1   2   0     4.677665588929    85.71385042     0.00000000
 S      1   2   3     4.679023213181    85.93784068   148.62714714
 S      1   2   3     4.661596254920   145.46537631    75.87795814
 O      1   2   3     3.002977565529   107.21303750   255.26899642
 C      3   1   2     3.322944159443    99.35835505   165.58475170
 C      7   3   1     2.545974180503   124.88060172   342.87668425
 C      2   1   3     3.321104139295   101.21899073   202.39693860
 C      9   2   1     2.548778184409   125.18279561     8.19423655
 S      7   3   1     3.394993993697   118.77522964   165.81840508
 S      8   7   3     3.391196764415   116.54440600   183.45842240
 S     10   9   2     3.392950415494   116.45185810   177.94583647
 S      9   2   1     3.394079312472   118.44955895   186.34566834
 C     12   8   7     3.337617167111    97.10066353     0.25830960
 C     13  10   9     3.333571851456    96.95170471   358.19127172
 C     15  12   8     2.591912627627   123.39757204   179.52661398
 C     16  13  10     2.604591666340   123.37850004   182.66971119
 S     17  15  12     3.364849661899   122.00480561   177.82121103
 S     17  15  12     3.364766304295   121.74623660   359.20769506
 S     18  16  13     3.359281053755   121.83053631   179.91592339
 S     18  16  13     3.360442134963   121.77053923     1.35254341
 C     22  18  16     3.406675482043    98.64968900   116.15231763
 C     21  18  16     3.407245385976    98.74900700   243.68493663
 C     24  21  18     2.975466728813   115.94193582   303.06276404
 H     23  22  18     2.152077393611   122.53365977   299.48788213
 H     23  22  18     2.136924598145   119.57685703   174.78637276
 H     25  24  21     2.078370399834   112.54727028   188.40793149
 H     25  24  21     2.079342389088   105.24591768   306.10922978
 H     24  21  18     2.136157760462   119.45195358   185.56498477
 H     24  21  18     2.151490451733   122.51573559    60.93896075
 C     20  17  15     3.464657052589    98.72174782   116.83644231
 C     19  17  15     3.465674697216    98.47666120   243.28897596
 C     32  20  17     2.921232599811   114.52187163    57.07282797
 H     33  19  17     2.079452374055   113.52518646    64.05990352
 H     33  19  17     2.076580471110   110.69053313   182.72159930
 H     34  32  20     2.070705336138   107.92871054    57.03751928
 H     34  32  20     2.076303304983   109.74416007   174.08692510
 H     32  20  17     2.076428320297   110.64604923   176.85775720
 H     32  20  17     2.079286290725   113.44693892   295.46839762

---------------------
BASIS SET INFORMATION
---------------------
There are 5 groups of distinct atoms

 Group   1 Type V   : 17s11p5d1f contracted to 17s7p3d1f pattern {11111111111111111/3311111/311/1}
 Group   2 Type S   : 14s9p1d contracted to 5s4p1d pattern {73211/6111/1}
 Group   3 Type O   : 11s6p1d contracted to 5s3p1d pattern {62111/411/1}
 Group   4 Type C   : 11s6p1d contracted to 5s3p1d pattern {62111/411/1}
 Group   5 Type H   : 5s1p contracted to 3s1p pattern {311/1}

Atom   0V    basis set group =>   1
Atom   1S    basis set group =>   2
Atom   2S    basis set group =>   2
Atom   3S    basis set group =>   2
Atom   4S    basis set group =>   2
Atom   5O    basis set group =>   3
Atom   6C    basis set group =>   4
Atom   7C    basis set group =>   4
Atom   8C    basis set group =>   4
Atom   9C    basis set group =>   4
Atom  10S    basis set group =>   2
Atom  11S    basis set group =>   2
Atom  12S    basis set group =>   2
Atom  13S    basis set group =>   2
Atom  14C    basis set group =>   4
Atom  15C    basis set group =>   4
Atom  16C    basis set group =>   4
Atom  17C    basis set group =>   4
Atom  18S    basis set group =>   2
Atom  19S    basis set group =>   2
Atom  20S    basis set group =>   2
Atom  21S    basis set group =>   2
Atom  22C    basis set group =>   4
Atom  23C    basis set group =>   4
Atom  24C    basis set group =>   4
Atom  25H    basis set group =>   5
Atom  26H    basis set group =>   5
Atom  27H    basis set group =>   5
Atom  28H    basis set group =>   5
Atom  29H    basis set group =>   5
Atom  30H    basis set group =>   5
Atom  31C    basis set group =>   4
Atom  32C    basis set group =>   4
Atom  33C    basis set group =>   4
Atom  34H    basis set group =>   5
Atom  35H    basis set group =>   5
Atom  36H    basis set group =>   5
Atom  37H    basis set group =>   5
Atom  38H    basis set group =>   5
Atom  39H    basis set group =>   5

-------------------------
BASIS SET IN INPUT FORMAT
-------------------------

 # Basis set for element : H 
 NewGTO H 
 S 3 
   1      34.0613410000      0.0254393168
   2       5.1235746000      0.1900859340
   3       1.1646626000      0.8524411390
 S 1 
   1       0.3272304100      1.0000000000
 S 1 
   1       0.1030724100      1.0000000000
 P 1 
   1       0.8000000000      1.0000000000
  end;

 # Basis set for element : C 
 NewGTO C 
 S 6 
   1   13575.3496820000      0.0006064601
   2    2035.2333680000      0.0046978985
   3     463.2256235900      0.0243324735
   4     131.2001959800      0.0973999560
   5      42.8530158900      0.3019558443
   6      15.5841857700      0.6623361013
 S 2 
   1       6.2067138500      0.6559530795
   2       2.5764896500      0.3758563390
 S 1 
   1       0.5769633900      1.0000000000
 S 1 
   1       0.2297283100      1.0000000000
 S 1 
   1       0.0951644400      1.0000000000
 P 4 
   1      34.6972322400      0.0113272290
   2       7.9582622800      0.0761696612
   3       2.3780826900      0.3019225154
   4       0.8143320800      0.7278502776
 P 1 
   1       0.2888754700      1.0000000000
 P 1 
   1       0.1005682400      1.0000000000
 D 1 
   1       0.8000000000      1.0000000000
  end;

 # Basis set for element : O 
 NewGTO O 
 S 6 
   1   27032.3826310000      0.0005722654
   2    4052.3871392000      0.0044353333
   3     922.3272271000      0.0230201034
   4     261.2407098900      0.0928224938
   5      85.3546413500      0.2937849971
   6      31.0350352400      0.6740160462
 S 2 
   1      12.2608607300      0.6383993750
   2       4.9987076000      0.3953458663
 S 1 
   1       1.1703108200      1.0000000000
 S 1 
   1       0.4647474100      1.0000000000
 S 1 
   1       0.1850453600      1.0000000000
 P 4 
   1      63.2749548000      0.0120183316
   2      14.6270493800      0.0830054304
   3       4.4501223500      0.3199174388
   4       1.5275799600      0.7071554258
 P 1 
   1       0.5293511800      1.0000000000
 P 1 
   1       0.1747842100      1.0000000000
 D 1 
   1       1.2000000000      1.0000000000
  end;

 # Basis set for element : S 
 NewGTO S 
 S 7 
   1   60700.9281040000      0.0005238013
   2    9102.6106854000      0.0040506304
   3    2071.4166009000      0.0208270003
   4     586.0247682100      0.0814968475
   5     190.5539502100      0.2374911358
   6      67.6303842600      0.4472617145
   7      25.1273069100      0.3489191913
 S 3 
   1     112.5746301000      0.1004556993
   2      34.7955542200      0.4339117282
   3       6.5115556200     -1.2084330582
 S 2 
   1       3.2399032300      0.6749812922
   2       1.5477160900      0.3470879597
 S 1 
   1       0.4054103000      1.0000000000
 S 1 
   1       0.1455065100      1.0000000000
 P 6 
   1     564.3671602700      0.0025564845
   2     133.4262437900      0.0202874255
   3      42.4682711900      0.0927670112
   4      15.6165275800      0.2650208365
   5       6.1093988500      0.4486298663
   6       2.4404160200      0.3596369916
 P 1 
   1       0.8388220100      1.0000000000
 P 1 
   1       0.3128874700      1.0000000000
 P 1 
   1       0.1077010900      1.0000000000
 D 1 
   1       0.5500000000      1.0000000000
  end;

 # Basis set for element : V 
 NewGTO V 
 S 1 
   1  4239814.9912500000      1.0000000000
 S 1 
   1  1695925.9965000001      1.0000000000
 S 1 
   1  678370.3986000001      1.0000000000
 S 1 
   1  271348.1594400000      1.0000000000
 S 1 
   1   40672.0050780000      1.0000000000
 S 1 
   1    9257.0761385000      1.0000000000
 S 1 
   1    2622.7328773000      1.0000000000
 S 1 
   1     858.5948018500      1.0000000000
 S 1 
   1     314.1941865000      1.0000000000
 S 1 
   1     124.4786212700      1.0000000000
 S 1 
   1      50.4693993090      1.0000000000
 S 1 
   1      12.5138469110      1.0000000000
 S 1 
   1       5.3447758082      1.0000000000
 S 1 
   1       1.5755631295      1.0000000000
 S 1 
   1       0.6306903307      1.0000000000
 S 1 
   1       0.0879544416      1.0000000000
 S 1 
   1       0.0342969197      1.0000000000
 P 3 
   1    1450.0319327000     -0.0222847647
   2     343.7504988400     -0.1817959329
   3     110.8252170800     -0.8607412073
 P 3 
   1      41.8224645460     -0.2522537814
   2      17.0880737100     -0.4620379520
   3       7.2613218939     -0.3990010670
 P 1 
   1       2.9458145262      1.0000000000
 P 1 
   1       1.1650209680      1.0000000000
 P 1 
   1       0.4339937839      1.0000000000
 D 3 
   1      27.3603358640      0.0575501019
   2       7.4542765527      0.3023798347
   3       2.4632270217      0.7724212088
 D 1 
   1       0.8249954244      1.0000000000
 D 1 
   1       0.2526297057      1.0000000000
 P 1 
   1       0.1112480000      1.0000000000
 P 1 
   1       0.0363780000      1.0000000000
 F 1 
   1       1.8000000000      1.0000000000
  end;

---------------------------------
AUXILIARY/J BASIS SET INFORMATION
---------------------------------
There are 5 groups of distinct atoms

 Group   1 Type V   : 19s5p5d3f3g contracted to 8s5p5d2f3g pattern {121111111/11111/11111/21/111}
 Group   2 Type S   : 14s5p5d2f1g contracted to 8s4p3d1f1g pattern {71111111/2111/311/2/1}
 Group   3 Type O   : 12s5p4d2f1g contracted to 6s4p3d1f1g pattern {711111/2111/211/2/1}
 Group   4 Type C   : 12s5p4d2f1g contracted to 6s4p3d1f1g pattern {711111/2111/211/2/1}
 Group   5 Type H   : 5s2p1d contracted to 3s1p1d pattern {311/2/1}

Atom   0V    basis set group =>   1
Atom   1S    basis set group =>   2
Atom   2S    basis set group =>   2
Atom   3S    basis set group =>   2
Atom   4S    basis set group =>   2
Atom   5O    basis set group =>   3
Atom   6C    basis set group =>   4
Atom   7C    basis set group =>   4
Atom   8C    basis set group =>   4
Atom   9C    basis set group =>   4
Atom  10S    basis set group =>   2
Atom  11S    basis set group =>   2
Atom  12S    basis set group =>   2
Atom  13S    basis set group =>   2
Atom  14C    basis set group =>   4
Atom  15C    basis set group =>   4
Atom  16C    basis set group =>   4
Atom  17C    basis set group =>   4
Atom  18S    basis set group =>   2
Atom  19S    basis set group =>   2
Atom  20S    basis set group =>   2
Atom  21S    basis set group =>   2
Atom  22C    basis set group =>   4
Atom  23C    basis set group =>   4
Atom  24C    basis set group =>   4
Atom  25H    basis set group =>   5
Atom  26H    basis set group =>   5
Atom  27H    basis set group =>   5
Atom  28H    basis set group =>   5
Atom  29H    basis set group =>   5
Atom  30H    basis set group =>   5
Atom  31C    basis set group =>   4
Atom  32C    basis set group =>   4
Atom  33C    basis set group =>   4
Atom  34H    basis set group =>   5
Atom  35H    basis set group =>   5
Atom  36H    basis set group =>   5
Atom  37H    basis set group =>   5
Atom  38H    basis set group =>   5
Atom  39H    basis set group =>   5

-------------------------------------
AUXILIARY/J BASIS SET IN INPUT FORMAT
-------------------------------------

 # Auxiliary/J basis set for element : H 
 NewAuxJGTO H 
 S 3 
   1      15.6752927000      0.1007184237
   2       3.6063578000      0.3404257499
   3       1.2080016000      0.6491996172
 S 1 
   1       0.4726794000      1.0000000000
 S 1 
   1       0.2018100000      1.0000000000
 P 2 
   1       2.0281365000      0.5596620919
   2       0.5358730000      0.5596620919
 D 1 
   1       2.2165124000      1.0000000000
  end;

 # Auxiliary/J basis set for element : C 
 NewAuxJGTO C 
 S 7 
   1    1861.0916331000      0.0134602335
   2     642.9939764000      0.0299160374
   3     235.1105725000      0.1008649584
   4      90.7028894000      0.2370970548
   5      36.7794552000      0.3924037254
   6      15.6046273000      0.3195862154
   7       6.8907294000      0.0530104441
 S 1 
   1       3.1478850000     -1.0000000000
 S 1 
   1       1.4777287000      1.0000000000
 S 1 
   1       0.7076466000      1.0000000000
 S 1 
   1       0.3430122000      1.0000000000
 S 1 
   1       0.1669453000      1.0000000000
 P 2 
   1      13.5472892000     -0.6769313712
   2       5.4669419000     -0.3779500978
 P 1 
   1       2.1751721000      1.0000000000
 P 1 
   1       0.8582194000      1.0000000000
 P 1 
   1       0.3376720000      1.0000000000
 D 2 
   1       5.9287253000     -0.3533329857
   2       1.9809209000     -0.7456525731
 D 1 
   1       0.8055417000     -1.0000000000
 D 1 
   1       0.3531244000     -1.0000000000
 F 2 
   1       1.6755626000      0.6311076882
   2       0.5997536000      0.4968166032
 G 1 
   1       1.0024600000     -1.0000000000
  end;

 # Auxiliary/J basis set for element : O 
 NewAuxJGTO O 
 S 7 
   1    2876.8216605000      0.0168151159
   2    1004.7443032000      0.0340137548
   3     369.7579954000      0.1194951309
   4     142.9442404000      0.2664627624
   5      57.8366425000      0.4202764046
   6      24.3864983000      0.2765077335
   7      10.6622662000      0.0057008815
 S 1 
   1       4.8070437000     -1.0000000000
 S 1 
   1       2.2210770000      1.0000000000
 S 1 
   1       1.0447795000      1.0000000000
 S 1 
   1       0.4968425000      1.0000000000
 S 1 
   1       0.2371384000      1.0000000000
 P 2 
   1      64.2613382000     -0.2731534179
   2      16.3006076000     -0.8168011598
 P 1 
   1       4.3550542000      1.0000000000
 P 1 
   1       1.2019554000      1.0000000000
 P 1 
   1       0.3354196000      1.0000000000
 D 2 
   1       9.2146611000     -0.4661230638
   2       2.8435251000     -0.6600908911
 D 1 
   1       0.9955759000     -1.0000000000
 D 1 
   1       0.3649441000     -1.0000000000
 F 2 
   1       2.6420115000      0.5931563945
   2       0.7345613000      0.5931563945
 G 1 
   1       1.3931000000     -1.0000000000
  end;

 # Auxiliary/J basis set for element : S 
 NewAuxJGTO S 
 S 7 
   1    7399.0303145000      0.0295137551
   2    2710.1675859000      0.0559686311
   3    1034.3279062000      0.1764696370
   4     410.4645411000      0.3577969368
   5     168.9762502000      0.4299293578
   6      71.9687889000      0.1259148089
   7      31.6172683000     -0.0646025788
 S 1 
   1      14.2796836000      1.0000000000
 S 1 
   1       6.6060948000      1.0000000000
 S 1 
   1       3.1181477000      1.0000000000
 S 1 
   1       1.4954039000     -1.0000000000
 S 1 
   1       0.7254779000      1.0000000000
 S 1 
   1       0.3544216000      1.0000000000
 S 1 
   1       0.1735525000      1.0000000000
 P 2 
   1      12.6998799000      1.4059102813
   2       4.4295784000     -1.2124994202
 P 1 
   1       1.5232889000      1.0000000000
 P 1 
   1       0.5194667000     -1.0000000000
 P 1 
   1       0.1766547000     -1.0000000000
 D 3 
   1      16.8546461000      1.0295742104
   2       5.0810461000     -0.7461553923
   3       1.5102323000      0.8357028005
 D 1 
   1       0.4451331000      1.0000000000
 D 1 
   1       0.1308362000      1.0000000000
 F 2 
   1       1.0809860000      0.5572698934
   2       0.4161474000      0.5572698934
 G 1 
   1       0.6707100000     -1.0000000000
  end;

 # Auxiliary/J basis set for element : V 
 NewAuxJGTO V 
 S 12 
   1   11942.0842430000      0.0459866720
   2    2430.7110193000      0.1744615821
   3     841.0764301000      0.2900402792
   4     494.7508273000      0.1411212903
   5     291.0298903000      0.2660697186
   6     171.1940483000      0.0446365706
   7      59.2366916000     -0.0408204801
   8      34.8451117000      0.1394665381
   9      20.4971240000      0.2164746715
  10      12.0571314000      0.0864266611
  11       7.0924300000     -0.0568501658
  12       4.1720176000     -0.0126212852
 S 1 
   1       2.4541279000      1.0000000000
 S 1 
   1       1.4436046000      1.0000000000
 S 1 
   1       0.8491792000      1.0000000000
 S 1 
   1       0.2938336000      1.0000000000
 S 1 
   1       0.1728433000      1.0000000000
 S 1 
   1       0.1016725000      1.0000000000
 S 1 
   1       0.0598074000      1.0000000000
 P 1 
   1      16.7130979000     -1.0000000000
 P 1 
   1       4.7454037000     -1.0000000000
 P 1 
   1       1.3889998000      1.0000000000
 P 1 
   1       0.4142440000     -1.0000000000
 P 1 
   1       0.1243234000      1.0000000000
 D 1 
   1       7.7143225000      1.0000000000
 D 1 
   1       3.1170731000      1.0000000000
 D 1 
   1       1.2767950000     -1.0000000000
 D 1 
   1       0.5273386000      1.0000000000
 D 1 
   1       0.2184050000      1.0000000000
 F 2 
   1       3.1309344000     -1.0825667766
   2       1.0419780000      0.1809223232
 F 1 
   1       0.3559044000      1.0000000000
 G 1 
   1       8.7130110000      1.0000000000
 G 1 
   1       2.7493872000      1.0000000000
 G 1 
   1       0.8775089000      1.0000000000
  end;



           ************************************************************
           *        Program running with 8 parallel MPI-processes     *
           *              working on a common directory               *
           ************************************************************
------------------------------------------------------------------------------
                           ORCA GTO INTEGRAL CALCULATION
                           -- RI-GTO INTEGRALS CHOSEN --
------------------------------------------------------------------------------
------------------------------------------------------------------------------
                   ___                                                        
                  /   \      - P O W E R E D   B Y -                         
                 /     \                                                     
                 |  |  |   _    _      __       _____    __    __             
                 |  |  |  | |  | |    /  \     |  _  \  |  |  /  |          
                  \  \/   | |  | |   /    \    | | | |  |  | /  /          
                 / \  \   | |__| |  /  /\  \   | |_| |  |  |/  /          
                |  |  |   |  __  | /  /__\  \  |    /   |      \           
                |  |  |   | |  | | |   __   |  |    \   |  |\   \          
                \     /   | |  | | |  |  |  |  | |\  \  |  | \   \       
                 \___/    |_|  |_| |__|  |__|  |_| \__\ |__|  \__/        
                                                                              
                      - O R C A' S   B I G   F R I E N D -                    
                                      &                                       
                       - I N T E G R A L  F E E D E R -                       
                                                                              
 v1 FN, 2020, v2 2021                                                         
------------------------------------------------------------------------------


Reading SHARK input file input_87.SHARKINP.tmp ... ok
----------------------
SHARK INTEGRAL PACKAGE
----------------------

Number of atoms                             ...     40
Number of basis functions                   ...    681
Number of shells                            ...    331
Maximum angular momentum                    ...      3
Integral batch strategy                     ... SHARK/LIBINT Hybrid
RI-J (if used) integral strategy            ... SPLIT-RIJ (Revised 2003 algorithm where possible)
Printlevel                                  ...      1
Contraction scheme used                     ... SEGMENTED contraction
Coulomb Range Separation                    ... NOT USED
Exchange Range Separation                   ... NOT USED
Finite Nucleus Model                        ... NOT USED
Auxiliary Coulomb fitting basis             ... AVAILABLE
   # of basis functions in Aux-J            ...   1568
   # of shells in Aux-J                     ...    512
   Maximum angular momentum in Aux-J        ...      4
Auxiliary J/K fitting basis                 ... NOT available
Auxiliary Correlation fitting basis         ... NOT available
Auxiliary 'external' fitting basis          ... NOT available
Integral threshold                          ...     1.000000e-10
Primitive cut-off                           ...     1.000000e-11
Primitive pair pre-selection threshold      ...     1.000000e-11

Calculating pre-screening integrals         ... done (  0.1 sec) Dimension = 331
Organizing shell pair data                  ... done (  0.1 sec)
Shell pair information
Total number of shell pairs                 ...     54946
Shell pairs after pre-screening             ...     22620
Total number of primitive shell pairs       ...    221635
Primitive shell pairs kept                  ...     55309
          la=0 lb=0:   6392 shell pairs
          la=1 lb=0:   9056 shell pairs
          la=1 lb=1:   3190 shell pairs
          la=2 lb=0:   2128 shell pairs
          la=2 lb=1:   1535 shell pairs
          la=2 lb=2:    197 shell pairs
          la=3 lb=0:     55 shell pairs
          la=3 lb=1:     54 shell pairs
          la=3 lb=2:     12 shell pairs
          la=3 lb=3:      1 shell pairs

Calculating one electron integrals          ... done (  0.0 sec)
Calculating RI/J V-Matrix + Cholesky decomp.... done (  0.1 sec)
Calculating Nuclear repulsion               ... done (  0.0 sec) ENN=   5061.047275237809 Eh

SHARK setup successfully completed in   0.6 seconds

Maximum memory used throughout the entire GTOINT-calculation: 39.7 MB


           ************************************************************
           *        Program running with 8 parallel MPI-processes     *
           *              working on a common directory               *
           ************************************************************
-------------------------------------------------------------------------------
                                 ORCA SCF
-------------------------------------------------------------------------------

------------
SCF SETTINGS
------------
Hamiltonian:
 Density Functional     Method          .... DFT(GTOs)
 Exchange Functional    Exchange        .... B88
   X-Alpha parameter    XAlpha          ....  0.666667
   Becke's b parameter  XBeta           ....  0.004200
 Correlation Functional Correlation     .... LYP
 LDA part of GGA corr.  LDAOpt          .... VWN-5
 Gradients option       PostSCFGGA      .... off
 Hybrid DFT is turned on
   Fraction HF Exchange ScalHFX         ....  0.200000
   Scaling of DF-GGA-X  ScalDFX         ....  0.720000
   Scaling of DF-GGA-C  ScalDFC         ....  0.810000
   Scaling of DF-LDA-C  ScalLDAC        ....  1.000000
   Perturbative correction              ....  0.000000
   Density functional embedding theory  .... OFF
   NL short-range parameter             ....  4.800000
 RI-approximation to the Coulomb term is turned on
   Number of AuxJ basis functions       .... 1568
   RIJ-COSX (HFX calculated with COS-X)).... on


General Settings:
 Integral files         IntName         .... input_87
 Hartree-Fock type      HFTyp           .... UHF
 Total Charge           Charge          ....   -2
 Multiplicity           Mult            ....    2
 Number of Electrons    NEL             ....  321
 Basis Dimension        Dim             ....  681
 Nuclear Repulsion      ENuc            ....   5061.0472752378 Eh

Convergence Acceleration:
 DIIS                   CNVDIIS         .... on
   Start iteration      DIISMaxIt       ....    12
   Startup error        DIISStart       ....  0.200000
   # of expansion vecs  DIISMaxEq       ....     5
   Bias factor          DIISBfac        ....   1.050
   Max. coefficient     DIISMaxC        ....  10.000
 Trust-Rad. Augm. Hess. CNVTRAH         .... auto
   Auto Start mean grad. ratio tolernc. ....  1.125000
   Auto Start start iteration           ....    20
   Auto Start num. interpolation iter.  ....    10
   Max. Number of Micro iterations      ....    16
   Max. Number of Macro iterations      .... Maxiter - #DIIS iter
   Number of Davidson start vectors     ....     2
   Converg. threshold I  (grad. norm)   ....   5.000e-05
   Converg. threshold II (energy diff.) ....   1.000e-06
   Grad. Scal. Fac. for Micro threshold ....   0.100
   Minimum threshold for Micro iter.    ....   0.010
   NR start threshold (gradient norm)   ....   0.001
   Initial trust radius                 ....   0.400
   Minimum AH scaling param. (alpha)    ....   1.000
   Maximum AH scaling param. (alpha)    .... 1000.000
   Orbital update algorithm             .... Taylor
   White noise on init. David. guess    .... on
   Maximum white noise                  ....   0.010
   Quad. conv. algorithm                .... NR
 SOSCF                  CNVSOSCF        .... off
 Level Shifting         CNVShift        .... on
   Level shift para.    LevelShift      ....    0.2500
   Turn off err/grad.   ShiftErr        ....    0.0010
 Zerner damping         CNVZerner       .... off
 Static damping         CNVDamp         .... on
   Fraction old density DampFac         ....    0.7000
   Max. Damping (<1)    DampMax         ....    0.9800
   Min. Damping (>=0)   DampMin         ....    0.0000
   Turn off err/grad.   DampErr         ....    0.1000
 Fernandez-Rico         CNVRico         .... off

SCF Procedure:
 Maximum # iterations   MaxIter         ....   125
 SCF integral mode      SCFMode         .... Direct
   Integral package                     .... SHARK and LIBINT hybrid scheme
 Reset frequency        DirectResetFreq ....    20
 Integral Threshold     Thresh          ....  1.000e-10 Eh
 Primitive CutOff       TCut            ....  1.000e-11 Eh

Convergence Tolerance:
 Convergence Check Mode ConvCheckMode   .... Total+1el-Energy
 Convergence forced     ConvForced      .... 0
 Energy Change          TolE            ....  1.000e-06 Eh
 1-El. energy change                    ....  1.000e-03 Eh
 DIIS Error             TolErr          ....  1.000e-06


Diagonalization of the overlap matrix:
Smallest eigenvalue                        ... 8.644e-05
Time for diagonalization                   ...    0.184 sec
Threshold for overlap eigenvalues          ... 1.000e-08
Number of eigenvalues below threshold      ... 0
Time for construction of square roots      ...    0.181 sec
Total time needed                          ...    0.368 sec

Time for model grid setup =    0.352 sec

------------------------------
INITIAL GUESS: MODEL POTENTIAL
------------------------------
Loading Hartree-Fock densities                     ... done
Calculating cut-offs                               ... done
Initializing the effective Hamiltonian             ... done
Setting up the integral package (SHARK)            ... done
Starting the Coulomb interaction                   ... done (   0.3 sec)
Reading the grid                                   ... done
Mapping shells                                     ... done
Starting the XC term evaluation                    ... done (   0.2 sec)
  promolecular density results
     # of electrons  =    318.997989748
     EX              =   -428.238393686
     EC              =    -12.535897546
     EX+EC           =   -440.774291232
Transforming the Hamiltonian                       ... done (   0.2 sec)
Diagonalizing the Hamiltonian                      ... done (   0.2 sec)
Back transforming the eigenvectors                 ... done (   0.1 sec)
Now organizing SCF variables                       ... done
                      ------------------
                      INITIAL GUESS DONE (   1.3 sec)
                      ------------------
-------------------
DFT GRID GENERATION
-------------------

General Integration Accuracy     IntAcc      ... 4.388
Radial Grid Type                 RadialGrid  ... OptM3 with GC (2021)
Angular Grid (max. ang.)         AngularGrid ... 4 (Lebedev-302)
Angular grid pruning method      GridPruning ... 4 (adaptive)
Weight generation scheme         WeightScheme... Becke
Basis function cutoff            BFCut       ... 1.0000e-10
Integration weight cutoff        WCut        ... 1.0000e-14
Angular grids for H and He will be reduced by one unit
Partially contracted basis set               ... off
Rotationally invariant grid construction     ... off

Total number of grid points                  ...   237220
Total number of batches                      ...     3727
Average number of points per batch           ...       63
Average number of grid points per atom       ...     5930
Time for grid setup =    1.797 sec

--------------------
COSX GRID GENERATION
--------------------

GRIDX 1
-------
General Integration Accuracy     IntAcc      ... 3.816
Radial Grid Type                 RadialGrid  ... OptM3 with GC (2021)
Angular Grid (max. ang.)         AngularGrid ... 1 (Lebedev-50)
Angular grid pruning method      GridPruning ... 4 (adaptive)
Weight generation scheme         WeightScheme... Becke
Basis function cutoff            BFCut       ... 1.0000e-10
Integration weight cutoff        WCut        ... 1.0000e-14
Angular grids for H and He will be reduced by one unit
Partially contracted basis set               ... on
Rotationally invariant grid construction     ... off

Total number of grid points                  ...    29168
Total number of batches                      ...      478
Average number of points per batch           ...       61
Average number of grid points per atom       ...      729
UseSFitting                                  ... on

GRIDX 2
-------
General Integration Accuracy     IntAcc      ... 4.020
Radial Grid Type                 RadialGrid  ... OptM3 with GC (2021)
Angular Grid (max. ang.)         AngularGrid ... 2 (Lebedev-110)
Angular grid pruning method      GridPruning ... 4 (adaptive)
Weight generation scheme         WeightScheme... Becke
Basis function cutoff            BFCut       ... 1.0000e-10
Integration weight cutoff        WCut        ... 1.0000e-14
Angular grids for H and He will be reduced by one unit
Partially contracted basis set               ... on
Rotationally invariant grid construction     ... off

Total number of grid points                  ...    64007
Total number of batches                      ...     1021
Average number of points per batch           ...       62
Average number of grid points per atom       ...     1600
UseSFitting                                  ... on

GRIDX 3
-------
General Integration Accuracy     IntAcc      ... 4.338
Radial Grid Type                 RadialGrid  ... OptM3 with GC (2021)
Angular Grid (max. ang.)         AngularGrid ... 3 (Lebedev-194)
Angular grid pruning method      GridPruning ... 4 (adaptive)
Weight generation scheme         WeightScheme... Becke
Basis function cutoff            BFCut       ... 1.0000e-10
Integration weight cutoff        WCut        ... 1.0000e-14
Angular grids for H and He will be reduced by one unit
Partially contracted basis set               ... on
Rotationally invariant grid construction     ... off

Total number of grid points                  ...   147181
Total number of batches                      ...     2317
Average number of points per batch           ...       63
Average number of grid points per atom       ...     3680
UseSFitting                                  ... on

Time for X-Grid setup             =    1.892 sec

--------------
SCF ITERATIONS
--------------
ITER       Energy         Delta-E        Max-DP      RMS-DP      [F,P]     Damp
               ***  Starting incremental Fock matrix formation  ***
  0  -6336.8452013114   0.000000000000 0.05272569  0.00065435  0.2324639 0.7000
  1  -6337.1800955197  -0.334894208353 0.11436919  0.00061784  0.1558647 0.7000
                               ***Turning on DIIS***
  2  -6337.3457141015  -0.165618581758 0.05260296  0.00032151  0.1090640 0.7000
  3  -6337.4361918049  -0.090477703422 0.05436806  0.00054233  0.0771817 0.0000
  4  -6337.6561728552  -0.219981050274 0.06920770  0.00031817  0.0127327 0.0000
  5  -6337.6618984521  -0.005725596936 0.01346181  0.00008277  0.0133392 0.0000
  6  -6337.6632665519  -0.001368099805 0.00334748  0.00003952  0.0042176 0.0000
  7  -6337.6636508498  -0.000384297904 0.00172201  0.00002272  0.0014774 0.0000
  8  -6337.6638220720  -0.000171222167 0.00272068  0.00001923  0.0019780 0.0000
  9  -6337.6639338660  -0.000111794014 0.00168727  0.00001531  0.0010444 0.0000
 10  -6337.6640054984  -0.000071632417 0.00323061  0.00003553  0.0006709 0.0000
               *** Restarting incremental Fock matrix formation ***
                                   *** Resetting DIIS ***
 11  -6337.6640883681  -0.000082869645 0.00092128  0.00001043  0.0007593 0.0000
 12  -6337.6640600739   0.000028294171 0.00038549  0.00000259  0.0023109 0.0000
 13  -6337.6640915955  -0.000031521619 0.00052480  0.00000443  0.0008052 0.0000
 14  -6337.6640966288  -0.000005033246 0.00021287  0.00000242  0.0002486 0.0000
 15  -6337.6640973719  -0.000000743148 0.00013633  0.00000137  0.0001763 0.0000
 16  -6337.6640978498  -0.000000477896 0.00011063  0.00000094  0.0000908 0.0000
 17  -6337.6640981494  -0.000000299632 0.00007798  0.00000076  0.0000784 0.0000
                 **** Energy Check signals convergence ****

               *****************************************************
               *                     SUCCESS                       *
               *           SCF CONVERGED AFTER  18 CYCLES          *
               *****************************************************

Old exchange energy                            =    -85.911127044 Eh
New exchange energy                            =    -85.911125164 Eh
Exchange energy change after final integration =      0.000001880 Eh
Total energy after final integration           =  -6337.664096289 Eh
Final COS-X integration done in                =    21.347 sec

----------------
TOTAL SCF ENERGY
----------------

Total Energy       :        -6337.66409629 Eh         -172456.60758 eV

Components:
Nuclear Repulsion  :         5061.04727524 Eh          137718.09781 eV
Electronic Energy  :       -11398.71137153 Eh         -310174.70540 eV
One Electron Energy:       -18891.80410666 Eh         -514072.12466 eV
Two Electron Energy:         7493.09273513 Eh          203897.41927 eV
Max COSX asymmetry :            0.00000084 Eh               0.00002 eV

Virial components:
Potential Energy   :       -12658.63934270 Eh         -344459.08848 eV
Kinetic Energy     :         6320.97524641 Eh          172002.48089 eV
Virial Ratio       :            2.00264023


DFT components:
N(Alpha)           :      160.999942387678 electrons
N(Beta)            :      159.999940831301 electrons
N(Total)           :      320.999883218980 electrons
E(X)               :     -341.406275382902 Eh       
E(C)               :      -14.718597345029 Eh       
E(XC)              :     -356.124872727931 Eh       
DFET-embed. en.    :        0.000000000000 Eh       

---------------
SCF CONVERGENCE
---------------

  Last Energy change         ...   -1.9654e-08  Tolerance :   1.0000e-06
  Last MAX-Density change    ...    0.0000e+00  Tolerance :   1.0000e-05
  Last RMS-Density change    ...    0.0000e+00  Tolerance :   1.0000e-06
  Last DIIS Error            ...    1.7118e-05  Tolerance :   1.0000e-06

             **** THE GBW FILE WAS UPDATED (input_87.gbw) ****
             **** DENSITY input_87.scfp WAS UPDATED ****
             **** ENERGY FILE WAS UPDATED (input_87.en.tmp) ****
----------------------
UHF SPIN CONTAMINATION
----------------------

Warning: in a DFT calculation there is little theoretical justification to 
         calculate <S**2> as in Hartree-Fock theory. We will do it anyways
         but you should keep in mind that the values have only limited relevance

Expectation value of <S**2>     :     0.765649
Ideal value S*(S+1) for S=0.5   :     0.750000
Deviation                       :     0.015649

             **** THE GBW FILE WAS UPDATED (input_87.gbw) ****
             **** DENSITY input_87.scfp WAS UPDATED ****
----------------
ORBITAL ENERGIES
----------------
                 SPIN UP ORBITALS
  NO   OCC          E(Eh)            E(eV) 
   0   1.0000    -196.676868     -5351.8497 
   1   1.0000     -88.742014     -2414.7930 
   2   1.0000     -88.741966     -2414.7916 
   3   1.0000     -88.736534     -2414.6439 
   4   1.0000     -88.736487     -2414.6426 
   5   1.0000     -88.734668     -2414.5931 
   6   1.0000     -88.734592     -2414.5910 
   7   1.0000     -88.732339     -2414.5297 
   8   1.0000     -88.732139     -2414.5243 
   9   1.0000     -88.642302     -2412.0797 
  10   1.0000     -88.641833     -2412.0669 
  11   1.0000     -88.641442     -2412.0563 
  12   1.0000     -88.641286     -2412.0520 
  13   1.0000     -22.052258      -600.0724 
  14   1.0000     -18.892073      -514.0794 
  15   1.0000     -18.558697      -505.0078 
  16   1.0000     -18.553538      -504.8674 
  17   1.0000     -18.553438      -504.8647 
  18   1.0000     -10.081675      -274.3363 
  19   1.0000     -10.078298      -274.2444 
  20   1.0000     -10.064641      -273.8728 
  21   1.0000     -10.064620      -273.8722 
  22   1.0000     -10.062749      -273.8213 
  23   1.0000     -10.062693      -273.8198 
  24   1.0000     -10.052845      -273.5518 
  25   1.0000     -10.050275      -273.4819 
  26   1.0000     -10.048407      -273.4310 
  27   1.0000     -10.045170      -273.3430 
  28   1.0000     -10.021465      -272.6979 
  29   1.0000     -10.020690      -272.6768 
  30   1.0000     -10.020103      -272.6609 
  31   1.0000     -10.019170      -272.6355 
  32   1.0000      -7.795254      -212.1196 
  33   1.0000      -7.795211      -212.1185 
  34   1.0000      -7.789884      -211.9735 
  35   1.0000      -7.789851      -211.9726 
  36   1.0000      -7.787880      -211.9190 
  37   1.0000      -7.787841      -211.9179 
  38   1.0000      -7.785564      -211.8560 
  39   1.0000      -7.785421      -211.8521 
  40   1.0000      -7.696590      -209.4349 
  41   1.0000      -7.696184      -209.4238 
  42   1.0000      -7.695779      -209.4128 
  43   1.0000      -7.695513      -209.4056 
  44   1.0000      -5.760453      -156.7499 
  45   1.0000      -5.760412      -156.7488 
  46   1.0000      -5.756749      -156.6491 
  47   1.0000      -5.756706      -156.6479 
  48   1.0000      -5.754951      -156.6002 
  49   1.0000      -5.754915      -156.5992 
  50   1.0000      -5.752803      -156.5417 
  51   1.0000      -5.752761      -156.5406 
  52   1.0000      -5.751443      -156.5047 
  53   1.0000      -5.751401      -156.5036 
  54   1.0000      -5.750502      -156.4791 
  55   1.0000      -5.750355      -156.4751 
  56   1.0000      -5.749946      -156.4640 
  57   1.0000      -5.749902      -156.4628 
  58   1.0000      -5.748347      -156.4205 
  59   1.0000      -5.748309      -156.4194 
  60   1.0000      -5.746067      -156.3584 
  61   1.0000      -5.745916      -156.3543 
  62   1.0000      -5.744637      -156.3195 
  63   1.0000      -5.744615      -156.3189 
  64   1.0000      -5.743778      -156.2962 
  65   1.0000      -5.743739      -156.2951 
  66   1.0000      -5.741411      -156.2317 
  67   1.0000      -5.741266      -156.2278 
  68   1.0000      -5.661919      -154.0686 
  69   1.0000      -5.661506      -154.0574 
  70   1.0000      -5.661080      -154.0458 
  71   1.0000      -5.660844      -154.0394 
  72   1.0000      -5.655230      -153.8866 
  73   1.0000      -5.654832      -153.8758 
  74   1.0000      -5.654414      -153.8644 
  75   1.0000      -5.654188      -153.8583 
  76   1.0000      -5.653916      -153.8509 
  77   1.0000      -5.653501      -153.8396 
  78   1.0000      -5.653098      -153.8286 
  79   1.0000      -5.652815      -153.8209 
  80   1.0000      -2.445887       -66.5560 
  81   1.0000      -1.487140       -40.4671 
  82   1.0000      -1.475542       -40.1515 
  83   1.0000      -1.474728       -40.1294 
  84   1.0000      -0.711967       -19.3736 
  85   1.0000      -0.710504       -19.3338 
  86   1.0000      -0.685281       -18.6474 
  87   1.0000      -0.684075       -18.6146 
  88   1.0000      -0.651594       -17.7308 
  89   1.0000      -0.631351       -17.1799 
  90   1.0000      -0.629601       -17.1323 
  91   1.0000      -0.617692       -16.8083 
  92   1.0000      -0.617429       -16.8011 
  93   1.0000      -0.578452       -15.7405 
  94   1.0000      -0.576672       -15.6921 
  95   1.0000      -0.576349       -15.6833 
  96   1.0000      -0.574739       -15.6394 
  97   1.0000      -0.497928       -13.5493 
  98   1.0000      -0.497190       -13.5292 
  99   1.0000      -0.496722       -13.5165 
 100   1.0000      -0.494855       -13.4657 
 101   1.0000      -0.482865       -13.1394 
 102   1.0000      -0.479860       -13.0577 
 103   1.0000      -0.443801       -12.0764 
 104   1.0000      -0.435547       -11.8518 
 105   1.0000      -0.416766       -11.3408 
 106   1.0000      -0.412302       -11.2193 
 107   1.0000      -0.353482        -9.6187 
 108   1.0000      -0.352160        -9.5828 
 109   1.0000      -0.325898        -8.8681 
 110   1.0000      -0.324012        -8.8168 
 111   1.0000      -0.320178        -8.7125 
 112   1.0000      -0.318420        -8.6647 
 113   1.0000      -0.303913        -8.2699 
 114   1.0000      -0.300561        -8.1787 
 115   1.0000      -0.283529        -7.7152 
 116   1.0000      -0.268264        -7.2998 
 117   1.0000      -0.262836        -7.1521 
 118   1.0000      -0.259502        -7.0614 
 119   1.0000      -0.257134        -6.9970 
 120   1.0000      -0.255867        -6.9625 
 121   1.0000      -0.232992        -6.3400 
 122   1.0000      -0.230822        -6.2810 
 123   1.0000      -0.227658        -6.1949 
 124   1.0000      -0.219493        -5.9727 
 125   1.0000      -0.217363        -5.9147 
 126   1.0000      -0.213008        -5.7962 
 127   1.0000      -0.210689        -5.7331 
 128   1.0000      -0.198626        -5.4049 
 129   1.0000      -0.196706        -5.3527 
 130   1.0000      -0.191280        -5.2050 
 131   1.0000      -0.189063        -5.1447 
 132   1.0000      -0.187765        -5.1094 
 133   1.0000      -0.181616        -4.9420 
 134   1.0000      -0.161411        -4.3922 
 135   1.0000      -0.152984        -4.1629 
 136   1.0000      -0.148915        -4.0522 
 137   1.0000      -0.138770        -3.7761 
 138   1.0000      -0.137818        -3.7502 
 139   1.0000      -0.136096        -3.7034 
 140   1.0000      -0.127208        -3.4615 
 141   1.0000      -0.123681        -3.3655 
 142   1.0000      -0.115336        -3.1385 
 143   1.0000      -0.111644        -3.0380 
 144   1.0000      -0.102634        -2.7928 
 145   1.0000      -0.100367        -2.7311 
 146   1.0000      -0.100266        -2.7284 
 147   1.0000      -0.097000        -2.6395 
 148   1.0000      -0.076523        -2.0823 
 149   1.0000      -0.069672        -1.8959 
 150   1.0000      -0.068813        -1.8725 
 151   1.0000      -0.054327        -1.4783 
 152   1.0000      -0.047605        -1.2954 
 153   1.0000      -0.040961        -1.1146 
 154   1.0000      -0.039170        -1.0659 
 155   1.0000      -0.034270        -0.9325 
 156   1.0000      -0.027175        -0.7395 
 157   1.0000      -0.021119        -0.5747 
 158   1.0000      -0.017461        -0.4751 
 159   1.0000       0.018131         0.4934 
 160   1.0000       0.039163         1.0657 
 161   0.0000       0.133006         3.6193 
 162   0.0000       0.135578         3.6893 
 163   0.0000       0.156670         4.2632 
 164   0.0000       0.160023         4.3544 
 165   0.0000       0.168733         4.5915 
 166   0.0000       0.170450         4.6382 
 167   0.0000       0.172678         4.6988 
 168   0.0000       0.173714         4.7270 
 169   0.0000       0.174040         4.7359 
 170   0.0000       0.175582         4.7778 
 171   0.0000       0.176491         4.8026 
 172   0.0000       0.183597         4.9959 
 173   0.0000       0.187960         5.1147 
 174   0.0000       0.197650         5.3783 
 175   0.0000       0.198425         5.3994 
 176   0.0000       0.199695         5.4340 
 177   0.0000       0.201296         5.4775 
 178   0.0000       0.205999         5.6055 
 179   0.0000       0.211731         5.7615 
 180   0.0000       0.216401         5.8886 
 181   0.0000       0.216881         5.9016 
 182   0.0000       0.220641         6.0039 
 183   0.0000       0.221090         6.0162 
 184   0.0000       0.225727         6.1424 
 185   0.0000       0.230992         6.2856 
 186   0.0000       0.234152         6.3716 
 187   0.0000       0.236607         6.4384 
 188   0.0000       0.236923         6.4470 
 189   0.0000       0.239493         6.5169 
 190   0.0000       0.246286         6.7018 
 191   0.0000       0.247035         6.7222 
 192   0.0000       0.247209         6.7269 
 193   0.0000       0.259189         7.0529 
 194   0.0000       0.262813         7.1515 
 195   0.0000       0.265282         7.2187 
 196   0.0000       0.271682         7.3928 
 197   0.0000       0.272521         7.4157 
 198   0.0000       0.274987         7.4828 
 199   0.0000       0.275252         7.4900 
 200   0.0000       0.284844         7.7510 
 201   0.0000       0.287005         7.8098 
 202   0.0000       0.297216         8.0877 
 203   0.0000       0.306046         8.3279 
 204   0.0000       0.307468         8.3666 
 205   0.0000       0.318916         8.6782 
 206   0.0000       0.320057         8.7092 
 207   0.0000       0.330502         8.9934 
 208   0.0000       0.332519         9.0483 
 209   0.0000       0.339879         9.2486 
 210   0.0000       0.345868         9.4115 
 211   0.0000       0.350003         9.5241 
 212   0.0000       0.353385         9.6161 
 213   0.0000       0.356202         9.6927 
 214   0.0000       0.359141         9.7727 
 215   0.0000       0.370667        10.0864 
 216   0.0000       0.371698        10.1144 
 217   0.0000       0.377392        10.2694 
 218   0.0000       0.380603        10.3567 
 219   0.0000       0.382159        10.3991 
 220   0.0000       0.388141        10.5619 
 221   0.0000       0.394044        10.7225 
 222   0.0000       0.396207        10.7813 
 223   0.0000       0.400202        10.8901 
 224   0.0000       0.400836        10.9073 
 225   0.0000       0.402342        10.9483 
 226   0.0000       0.406067        11.0496 
 227   0.0000       0.410479        11.1697 
 228   0.0000       0.414303        11.2737 
 229   0.0000       0.415627        11.3098 
 230   0.0000       0.419287        11.4094 
 231   0.0000       0.421061        11.4577 
 232   0.0000       0.425449        11.5771 
 233   0.0000       0.427876        11.6431 
 234   0.0000       0.431886        11.7522 
 235   0.0000       0.443718        12.0742 
 236   0.0000       0.446656        12.1541 
 237   0.0000       0.447248        12.1702 
 238   0.0000       0.451552        12.2873 
 239   0.0000       0.456762        12.4291 
 240   0.0000       0.460945        12.5430 
 241   0.0000       0.467135        12.7114 
 242   0.0000       0.468242        12.7415 
 243   0.0000       0.470748        12.8097 
 244   0.0000       0.473251        12.8778 
 245   0.0000       0.475313        12.9339 
 246   0.0000       0.476343        12.9620 
 247   0.0000       0.482341        13.1252 
 248   0.0000       0.487188        13.2571 
 249   0.0000       0.491097        13.3634 
 250   0.0000       0.492599        13.4043 
 251   0.0000       0.500117        13.6089 
 252   0.0000       0.501171        13.6376 
 253   0.0000       0.504577        13.7302 
 254   0.0000       0.504938        13.7401 
 255   0.0000       0.511892        13.9293 
 256   0.0000       0.513749        13.9798 
 257   0.0000       0.517114        14.0714 
 258   0.0000       0.520217        14.1558 
 259   0.0000       0.520586        14.1659 
 260   0.0000       0.521870        14.2008 
 261   0.0000       0.524482        14.2719 
 262   0.0000       0.525365        14.2959 
 263   0.0000       0.527143        14.3443 
 264   0.0000       0.530864        14.4456 
 265   0.0000       0.532386        14.4870 
 266   0.0000       0.533941        14.5293 
 267   0.0000       0.540511        14.7081 
 268   0.0000       0.544091        14.8055 
 269   0.0000       0.546050        14.8588 
 270   0.0000       0.549816        14.9613 
 271   0.0000       0.554415        15.0864 
 272   0.0000       0.558797        15.2057 
 273   0.0000       0.562030        15.2936 
 274   0.0000       0.568888        15.4802 
 275   0.0000       0.569658        15.5012 
 276   0.0000       0.572646        15.5825 
 277   0.0000       0.578106        15.7311 
 278   0.0000       0.580975        15.8091 
 279   0.0000       0.582979        15.8637 
 280   0.0000       0.584218        15.8974 
 281   0.0000       0.588871        16.0240 
 282   0.0000       0.590256        16.0617 
 283   0.0000       0.591601        16.0983 
 284   0.0000       0.596604        16.2344 
 285   0.0000       0.600891        16.3511 
 286   0.0000       0.604451        16.4480 
 287   0.0000       0.612246        16.6601 
 288   0.0000       0.613942        16.7062 
 289   0.0000       0.617721        16.8090 
 290   0.0000       0.619307        16.8522 
 291   0.0000       0.620690        16.8898 
 292   0.0000       0.628565        17.1041 
 293   0.0000       0.629812        17.1381 
 294   0.0000       0.634058        17.2536 
 295   0.0000       0.636324        17.3153 
 296   0.0000       0.637506        17.3474 
 297   0.0000       0.645784        17.5727 
 298   0.0000       0.653410        17.7802 
 299   0.0000       0.656259        17.8577 
 300   0.0000       0.676501        18.4085 
 301   0.0000       0.682419        18.5696 
 302   0.0000       0.692225        18.8364 
 303   0.0000       0.702472        19.1152 
 304   0.0000       0.710880        19.3440 
 305   0.0000       0.714698        19.4479 
 306   0.0000       0.718647        19.5554 
 307   0.0000       0.732273        19.9261 
 308   0.0000       0.733903        19.9705 
 309   0.0000       0.737947        20.0805 
 310   0.0000       0.743640        20.2355 
 311   0.0000       0.748761        20.3748 
 312   0.0000       0.756453        20.5841 
 313   0.0000       0.765404        20.8277 
 314   0.0000       0.767588        20.8871 
 315   0.0000       0.781616        21.2688 
 316   0.0000       0.790373        21.5071 
 317   0.0000       0.793251        21.5855 
 318   0.0000       0.800825        21.7915 
 319   0.0000       0.811474        22.0813 
 320   0.0000       0.819031        22.2870 
 321   0.0000       0.821089        22.3430 
 322   0.0000       0.825588        22.4654 
 323   0.0000       0.827024        22.5045 
 324   0.0000       0.842347        22.9214 
 325   0.0000       0.846571        23.0364 
 326   0.0000       0.853412        23.2225 
 327   0.0000       0.861726        23.4488 
 328   0.0000       0.864941        23.5362 
 329   0.0000       0.868320        23.6282 
 330   0.0000       0.869526        23.6610 
 331   0.0000       0.874131        23.7863 
 332   0.0000       0.875401        23.8209 
 333   0.0000       0.880045        23.9472 
 334   0.0000       0.885481        24.0952 
 335   0.0000       0.891486        24.2586 
 336   0.0000       0.897621        24.4255 
 337   0.0000       0.898906        24.4605 
 338   0.0000       0.909696        24.7541 
 339   0.0000       0.916627        24.9427 
 340   0.0000       0.921556        25.0768 
 341   0.0000       0.928844        25.2751 
 342   0.0000       0.935007        25.4428 
 343   0.0000       0.937090        25.4995 
 344   0.0000       0.939251        25.5583 
 345   0.0000       0.941267        25.6132 
 346   0.0000       0.942441        25.6451 
 347   0.0000       0.945363        25.7246 
 348   0.0000       0.959087        26.0981 
 349   0.0000       0.961218        26.1561 
 350   0.0000       0.967207        26.3190 
 351   0.0000       0.973320        26.4854 
 352   0.0000       0.987734        26.8776 
 353   0.0000       0.995606        27.0918 
 354   0.0000       1.004870        27.3439 
 355   0.0000       1.007341        27.4111 
 356   0.0000       1.010880        27.5075 
 357   0.0000       1.012058        27.5395 
 358   0.0000       1.014214        27.5982 
 359   0.0000       1.018220        27.7072 
 360   0.0000       1.034763        28.1573 
 361   0.0000       1.035929        28.1891 
 362   0.0000       1.040303        28.3081 
 363   0.0000       1.046837        28.4859 
 364   0.0000       1.056899        28.7597 
 365   0.0000       1.064460        28.9654 
 366   0.0000       1.066244        29.0140 
 367   0.0000       1.069104        29.0918 
 368   0.0000       1.074241        29.2316 
 369   0.0000       1.077149        29.3107 
 370   0.0000       1.083880        29.4939 
 371   0.0000       1.092127        29.7183 
 372   0.0000       1.095491        29.8098 
 373   0.0000       1.099964        29.9315 
 374   0.0000       1.104606        30.0579 
 375   0.0000       1.107435        30.1348 
 376   0.0000       1.111534        30.2464 
 377   0.0000       1.117373        30.4053 
 378   0.0000       1.128141        30.6983 
 379   0.0000       1.139575        31.0094 
 380   0.0000       1.140501        31.0346 
 381   0.0000       1.154196        31.4073 
 382   0.0000       1.157890        31.5078 
 383   0.0000       1.159683        31.5566 
 384   0.0000       1.163910        31.6716 
 385   0.0000       1.195467        32.5303 
 386   0.0000       1.202630        32.7252 
 387   0.0000       1.225501        33.3476 
 388   0.0000       1.228321        33.4243 
 389   0.0000       1.235817        33.6283 
 390   0.0000       1.236636        33.6506 
 391   0.0000       1.246520        33.9195 
 392   0.0000       1.272929        34.6382 
 393   0.0000       1.279694        34.8223 
 394   0.0000       1.289658        35.0934 
 395   0.0000       1.292143        35.1610 
 396   0.0000       1.293312        35.1928 
 397   0.0000       1.296353        35.2756 
 398   0.0000       1.305822        35.5332 
 399   0.0000       1.320967        35.9453 
 400   0.0000       1.331833        36.2410 
 401   0.0000       1.349084        36.7105 
 402   0.0000       1.356871        36.9223 
 403   0.0000       1.397942        38.0399 
 404   0.0000       1.406465        38.2719 
 405   0.0000       1.416012        38.5316 
 406   0.0000       1.420492        38.6535 
 407   0.0000       1.424463        38.7616 
 408   0.0000       1.426408        38.8145 
 409   0.0000       1.436066        39.0773 
 410   0.0000       1.444241        39.2998 
 411   0.0000       1.447042        39.3760 
 412   0.0000       1.476442        40.1760 
 413   0.0000       1.479307        40.2540 
 414   0.0000       1.495219        40.6870 
 415   0.0000       1.495890        40.7052 
 416   0.0000       1.508472        41.0476 
 417   0.0000       1.511059        41.1180 
 418   0.0000       1.513207        41.1765 
 419   0.0000       1.525925        41.5225 
 420   0.0000       1.528180        41.5839 
[...]
Total number of batches                      ...      299
Average number of points per batch           ...       59
Average number of grid points per atom       ...      444

Memory available               ... 822.0 MB
Memory needed per perturbation ...  41.3 MB
Perturbations treated per batch... 3
Number of batches              ... 1
     CP-SCF ITERATION   0:   4.1320e-02 (   4.8 sec   0/  3 done)
     CP-SCF ITERATION   1:   1.3890e-03 (   5.0 sec   1/  3 done)
     CP-SCF ITERATION   2:   1.4554e-04 (   4.0 sec   3/  3 done)
                    *** THE CP-SCF HAS CONVERGED ***

Forming final perturbed densities           ... done
Transforming perturbed density to AO basis  ... done

 Raw HFC matrix (all values in MHz): 
 -----------------------------------
                 0.0852              -0.1041              -0.0611
                -0.1039              -0.0019               0.0406
                -0.0615               0.0409              -0.0479

 A(FC)           0.0116               0.0116               0.0116
 A(SD)          -0.0831              -0.0847               0.1678
 A(ORB+DIA)      0.0004               0.0012              -0.0011    A(PC) =   0.0002
 A(ORB)          0.0004               0.0012              -0.0011    A(PC) =   0.0002
 A(DIA)         -0.0000              -0.0000               0.0000    A(PC) =  -0.0000
             ----------           ----------           ----------
 A(Tot)         -0.0711              -0.0719               0.1784    A(iso)=    0.0118
 Orientation: 
  X           0.5689401           -0.2217924           -0.7919061
  Y           0.8202320            0.2225766            0.5269527
  Z           0.0593857           -0.9493512            0.3085540

Notes:  (1) The A matrix conforms to the "SAI" spin Hamiltonian convention.
        (2) Tensor is right-handed.

 Raw EFG matrix (all values in a.u.**-3):
 -----------------------------------
             0.2681       0.0269      -0.0727
             0.0269      -0.1434      -0.0001
            -0.0727      -0.0001      -0.1247

 V(El)       0.5794       0.7920      -1.3714
 V(Nuc)     -0.7149      -0.9393       1.6542
         ----------   ----------   ----------
 V(Tot)     -0.1355      -0.1472       0.2828 
 Orientation: 
  X       0.1315385   -0.1315609   -0.9825423
  Y       0.4351211    0.8982333   -0.0620200
  Z       0.8907117   -0.4193669    0.1753972

Note: Tensor is right-handed


 Quadrupole tensor eigenvalues (in MHz;Q= 0.0029 I=  1.0)
  e**2qQ            =     0.189876 MHz 
  e**2qQ/(4I*(2I-1))=     0.047469 MHz 
  eta               =     0.041376
  NOTE: the diagonal representation of the SH term I*Q*I = e**2qQ/(4I(2I-1))*[-(1-eta),-(1+eta),2]

 RHO(0)=      0.440939402 a.u.**-3

 -----------------------------------------------------------
 Nucleus  39H : A:ISTP=    1 I=  0.5 P=533.5514 MHz/au**3
                Q:ISTP=    2 I=  1.0 Q=  0.0029 barn     
 -----------------------------------------------------------
 Solving for nuclear perturbation:
Forming RHS of the CP-SCF equations         ... 
Calc. nucleus orbit integrals (SHARK)       ... done

------------------------------------------------------------------------------
                           ORCA CP-SCF CALCULATION
------------------------------------------------------------------------------

Input orbitals are from        ... input_87.gbw
Input Perturbation             ... input_87.pin.tmp
Wavefunction output            ... input_87.pout.tmp
Perturbation mode              ... Imaginary perturbation
Solver                         ... POPLE
Max. number of iterations      ... 64
Convergence tolerance          ... 1.000e-03
Integral handling              ... Direct
DFT GridXC                     ... 1
COSX GridX                     ... 1
COSX IntAccX                   ... 3.067
COSX Algorithm                 ... Auto
Number of perturbations        ... 3
Number of operators            ... 2
Orbital ranges used for CP-SCF:
 Operator 0:  Orbitals   0...160  to 161...680
 Operator 1:  Orbitals   0...159  to 160...680
Variables per perturbation     ... 167080
DFT calculation                         ... on
XC functional terms                     ... off
Hybrid DFT                              ... on
   Exchange mixing (SCF)                ...  0.200
   Exchange mixing (CP-SCF)             ...  0.200
   GGA exch. scaling(SCF)               ...  0.720
   GGA exch. scaling (CP-SCF)           ...  0.720
   GGA corr. scaling (SCF)              ...  0.810
   GGA corr. scaling (CP-SCF)           ...  0.810

CP-SCF GRID
-----------

General Integration Accuracy     IntAcc      ... 3.467
Radial Grid Type                 RadialGrid  ... OptM3 with GC (2021)
Angular Grid (max. ang.)         AngularGrid ... 1 (Lebedev-50)
Angular grid pruning method      GridPruning ... 4 (adaptive)
Weight generation scheme         WeightScheme... Becke
Basis function cutoff            BFCut       ... 1.0000e-10
Integration weight cutoff        WCut        ... 1.0000e-14
Angular grids for H and He will be reduced by one unit
Partially contracted basis set               ... off
Rotationally invariant grid construction     ... off

Total number of grid points                  ...    39317
Total number of batches                      ...      640
Average number of points per batch           ...       61
Average number of grid points per atom       ...      983

CP-SCF GRIDX
------------

General Integration Accuracy     IntAcc      ... 3.067
Radial Grid Type                 RadialGrid  ... OptM3 with GC (2021)
Angular Grid (max. ang.)         AngularGrid ... 1 (Lebedev-50)
Angular grid pruning method      GridPruning ... 4 (adaptive)
Weight generation scheme         WeightScheme... Becke
Basis function cutoff            BFCut       ... 1.0000e-10
Integration weight cutoff        WCut        ... 1.0000e-14
Angular grids for H and He will be reduced by one unit
Partially contracted basis set               ... on
Rotationally invariant grid construction     ... off

Total number of grid points                  ...    17761
Total number of batches                      ...      299
Average number of points per batch           ...       59
Average number of grid points per atom       ...      444

Memory available               ... 819.9 MB
Memory needed per perturbation ...  41.3 MB
Perturbations treated per batch... 3
Number of batches              ... 1
     CP-SCF ITERATION   0:   4.2758e-02 (   4.9 sec   0/  3 done)
     CP-SCF ITERATION   1:   1.4579e-03 (   5.0 sec   0/  3 done)
     CP-SCF ITERATION   2:   1.6728e-04 (   5.0 sec   3/  3 done)
                    *** THE CP-SCF HAS CONVERGED ***

Forming final perturbed densities           ... done
Transforming perturbed density to AO basis  ... done

 Raw HFC matrix (all values in MHz): 
 -----------------------------------
                 0.0712              -0.1536              -0.1180
                -0.1535              -0.0220               0.0857
                -0.1182               0.0860              -0.0664

 A(FC)          -0.0060              -0.0060              -0.0060
 A(SD)          -0.1287              -0.1311               0.2598
 A(ORB+DIA)      0.0019               0.0008              -0.0017    A(PC) =   0.0003
 A(ORB)          0.0019               0.0008              -0.0017    A(PC) =   0.0003
 A(DIA)         -0.0000              -0.0001               0.0000    A(PC) =  -0.0000
             ----------           ----------           ----------
 A(Tot)         -0.1328              -0.1364               0.2520    A(iso)=   -0.0057
 Orientation: 
  X          -0.0702794            0.6786744            0.7310690
  Y           0.5475882            0.6388325           -0.5404074
  Z          -0.8337913            0.3623453           -0.4165309

Notes:  (1) The A matrix conforms to the "SAI" spin Hamiltonian convention.
        (2) Tensor is right-handed.

 Raw EFG matrix (all values in a.u.**-3):
 -----------------------------------
            -0.0592      -0.1183       0.1143
            -0.1183       0.0348      -0.1655
             0.1143      -0.1655       0.0244

 V(El)       0.5217       0.5547      -1.0765
 V(Nuc)     -0.6577      -0.6947       1.3524
         ----------   ----------   ----------
 V(Tot)     -0.1360      -0.1400       0.2760 
 Orientation: 
  X      -0.0421554    0.8966565   -0.4407153
  Y       0.6800814    0.3488963    0.6447951
  Z       0.7319237   -0.2725407   -0.6245073

Note: Tensor is right-handed


 Quadrupole tensor eigenvalues (in MHz;Q= 0.0029 I=  1.0)
  e**2qQ            =     0.185299 MHz 
  e**2qQ/(4I*(2I-1))=     0.046325 MHz 
  eta               =     0.014372
  NOTE: the diagonal representation of the SH term I*Q*I = e**2qQ/(4I(2I-1))*[-(1-eta),-(1+eta),2]

 RHO(0)=      0.439452774 a.u.**-3

 -----------------------------------------------------------
 Nucleus   0V : A:ISTP=   51 I=  3.5 P=140.5173 MHz/au**3
                Q:ISTP=   51 I=  3.5 Q= -0.0430 barn     
 -----------------------------------------------------------
 Solving for nuclear perturbation:
Forming RHS of the CP-SCF equations         ... 
Calc. nucleus orbit integrals (SHARK)       ... done

------------------------------------------------------------------------------
                           ORCA CP-SCF CALCULATION
------------------------------------------------------------------------------

Input orbitals are from        ... input_87.gbw
Input Perturbation             ... input_87.pin.tmp
Wavefunction output            ... input_87.pout.tmp
Perturbation mode              ... Imaginary perturbation
Solver                         ... POPLE
Max. number of iterations      ... 64
Convergence tolerance          ... 1.000e-03
Integral handling              ... Direct
DFT GridXC                     ... 1
COSX GridX                     ... 1
COSX IntAccX                   ... 3.067
COSX Algorithm                 ... Auto
Number of perturbations        ... 3
Number of operators            ... 2
Orbital ranges used for CP-SCF:
 Operator 0:  Orbitals   0...160  to 161...680
 Operator 1:  Orbitals   0...159  to 160...680
Variables per perturbation     ... 167080
DFT calculation                         ... on
XC functional terms                     ... off
Hybrid DFT                              ... on
   Exchange mixing (SCF)                ...  0.200
   Exchange mixing (CP-SCF)             ...  0.200
   GGA exch. scaling(SCF)               ...  0.720
   GGA exch. scaling (CP-SCF)           ...  0.720
   GGA corr. scaling (SCF)              ...  0.810
   GGA corr. scaling (CP-SCF)           ...  0.810

CP-SCF GRID
-----------

General Integration Accuracy     IntAcc      ... 3.467
Radial Grid Type                 RadialGrid  ... OptM3 with GC (2021)
Angular Grid (max. ang.)         AngularGrid ... 1 (Lebedev-50)
Angular grid pruning method      GridPruning ... 4 (adaptive)
Weight generation scheme         WeightScheme... Becke
Basis function cutoff            BFCut       ... 1.0000e-10
Integration weight cutoff        WCut        ... 1.0000e-14
Angular grids for H and He will be reduced by one unit
Partially contracted basis set               ... off
Rotationally invariant grid construction     ... off

Total number of grid points                  ...    39317
Total number of batches                      ...      640
Average number of points per batch           ...       61
Average number of grid points per atom       ...      983

CP-SCF GRIDX
------------

General Integration Accuracy     IntAcc      ... 3.067
Radial Grid Type                 RadialGrid  ... OptM3 with GC (2021)
Angular Grid (max. ang.)         AngularGrid ... 1 (Lebedev-50)
Angular grid pruning method      GridPruning ... 4 (adaptive)
Weight generation scheme         WeightScheme... Becke
Basis function cutoff            BFCut       ... 1.0000e-10
Integration weight cutoff        WCut        ... 1.0000e-14
Angular grids for H and He will be reduced by one unit
Partially contracted basis set               ... on
Rotationally invariant grid construction     ... off

Total number of grid points                  ...    17761
Total number of batches                      ...      299
Average number of points per batch           ...       59
Average number of grid points per atom       ...      444

Memory available               ... 817.8 MB
Memory needed per perturbation ...  41.3 MB
Perturbations treated per batch... 3
Number of batches              ... 1
     CP-SCF ITERATION   0:   1.3201e+01 (   5.2 sec   0/  3 done)
     CP-SCF ITERATION   1:   1.8945e+00 (   5.0 sec   0/  3 done)
     CP-SCF ITERATION   2:   3.3335e-01 (   5.0 sec   0/  3 done)
     CP-SCF ITERATION   3:   3.9181e-02 (   5.0 sec   0/  3 done)
     CP-SCF ITERATION   4:   5.8893e-03 (   5.0 sec   0/  3 done)
     CP-SCF ITERATION   5:   1.6453e-03 (   5.1 sec   1/  3 done)
     CP-SCF ITERATION   6:   3.4110e-04 (   4.0 sec   3/  3 done)
                    *** THE CP-SCF HAS CONVERGED ***

Forming final perturbed densities           ... done
Transforming perturbed density to AO basis  ... done

 Raw HFC matrix (all values in MHz): 
 -----------------------------------
               -90.1785              11.1027             -34.0383
                11.0071            -105.3243              72.0416
               -33.3630              71.1606            -365.6849

 A(FC)        -175.1610            -175.1610            -175.1610
 A(SD)          97.9945              93.8641            -191.8586
 A(ORB+DIA)     -6.9371              -7.5095             -21.2582    A(PC) = -11.9016
 A(ORB)         -6.9366              -7.5100             -21.2581    A(PC) = -11.9016
 A(DIA)         -0.0004               0.0005              -0.0002    A(PC) =  -0.0000
             ----------           ----------           ----------
 A(Tot)        -84.1036             -88.8064            -388.2778    A(iso)= -187.0626
 Orientation: 
  X           0.7497638           -0.6509335            0.1189108
  Y           0.6571439            0.7114093           -0.2491159
  Z           0.0775637            0.2649196            0.9611459

Notes:  (1) The A matrix conforms to the "SAI" spin Hamiltonian convention.
        (2) Tensor is right-handed.

 Raw EFG matrix (all values in a.u.**-3):
 -----------------------------------
            -0.0982       0.0530       0.0601
             0.0530      -0.0759      -0.1185
             0.0601      -0.1185       0.1741

 V(El)       0.1878      -0.4745       0.2866
 V(Nuc)     -0.2288       0.2899      -0.0610
         ----------   ----------   ----------
 V(Tot)     -0.0410      -0.1846       0.2256 
 Orientation: 
  X      -0.7501990    0.6509143    0.1162415
  Y      -0.6449697   -0.6816475   -0.3455006
  Z      -0.1456556   -0.3341664    0.9311913

Note: Tensor is right-handed


 Quadrupole tensor eigenvalues (in MHz;Q=-0.0430 I=  3.5)
  e**2qQ            =    -2.279042 MHz 
  e**2qQ/(4I*(2I-1))=    -0.027131 MHz 
  eta               =     0.636423
  NOTE: the diagonal representation of the SH term I*Q*I = e**2qQ/(4I(2I-1))*[-(1-eta),-(1+eta),2]

 RHO(0)=   8115.202082807 a.u.**-3


--------------------------------------------------------------------------------
----------------------------------------------------------------------------
                           ORCA EULER ANGLE PROGRAM
----------------------------------------------------------------------------

Only g-tensor available        -->  using g-tensor as reference tensor

Reference tensor               ...  g

g-tensor ordering              ...  |g_min> --> |gx>
                                    |g_mid> --> |gy>
                                    |g_max> --> |gz>

A- and EFG-tensor ordering     ...  the axes |Ax>, |Qx>, |Ay>, etc. are assigned
                                    such that the Euler rotation is minimal. You
                                    can find the respective eigenvalues as Ax,
                                    EFGx, Ay, etc. in the tables below.
                                    The relation of |Ax>, |Ay>,  etc. to Amin, Amid, etc.
                                    (as printed in the ORCA EPR/NMR CALCULATION Output)
                                    is obtained in the detailed printout.

Euler rotation around          ...  z - y - z
   First rotation              -->  by alpha around z
   Second rotation             -->  by beta around y'
   Third rotation              -->  by gamma around z''
   Positive / Negative angle   -->  clockwise / counterclockwise rotation

Plot EFG-tensors                    (-)
Plot HFC-tensors                    (-)
Detailed Printout                   (-)

-------------------------------------------------------------------------
          Euler rotation of hyperfine tensor to g-tensor
-------------------------------------------------------------------------

-------------------------------------------------------------------
 Atom  |   Alpha    Beta    Gamma   |   Ax       Ay       Az 
       |          [degrees]         |           [MHz]         
-------------------------------------------------------------------
 25H      -10.4     22.9     36.4      -0.12     0.24    -0.12
 26H     -129.8     10.1    151.1      -0.08     0.15    -0.08
 27H      131.2      5.5   -107.0      -0.07     0.13    -0.07
 28H      105.7      4.3    -91.1      -0.07     0.14    -0.07
 29H       90.2     16.0    -69.3      -0.08     0.15    -0.08
 30H      142.8     20.4   -117.6      -0.12     0.24    -0.12
 34H     -157.3      6.7    162.2      -0.13     0.25    -0.14
 35H      -38.1     11.3     36.6      -0.07     0.18    -0.07
 36H       27.9     11.8    -35.0      -0.07     0.14    -0.07
 37H      162.9     21.4   -161.4      -0.07     0.14    -0.07
 38H      104.1     19.4   -107.7      -0.07     0.18    -0.07
 39H       47.9     20.6    -42.4      -0.13     0.25    -0.14
  0V       80.3      5.9    -87.1    -388.28   -88.81   -84.10
-------------------------------------------------------------------


-------------------------------------------------------------------------------
    Euler rotation of Electric Field Gradient (EFG) tensor to g-tensor
-------------------------------------------------------------------------------

-------------------------------------------------------------------
 Atom  |   Alpha    Beta    Gamma  |   EFGx     EFGy     EFGz
       |          [degrees]        |         [a.u.**-3]       
-------------------------------------------------------------------
 25H       84.0     19.2    -40.3      0.22    -0.11    -0.12
 26H       40.9     50.3    -59.5     -0.11    -0.13     0.24
 27H       49.8      4.2    -71.1      0.28    -0.15    -0.14
 28H       35.2      3.6    -74.4     -0.14     0.28    -0.14
 29H     -141.3     42.4    121.7     -0.11    -0.13     0.24
 30H     -113.7     13.0    156.5      0.22    -0.11    -0.12
 34H       88.9     36.9    -60.0      0.28    -0.14    -0.14
 35H     -121.9     53.6    143.3     -0.15     0.28    -0.14
 36H       90.9      7.1    -58.7      0.28    -0.14    -0.14
 37H       18.8      7.1    -59.3      0.28    -0.15    -0.14
 38H      -44.0     34.3     88.7     -0.15    -0.14     0.28
 39H      -90.0     22.9    118.9      0.28    -0.14    -0.14
  0V       56.5      8.0    -58.8      0.23    -0.18    -0.04
-------------------------------------------------------------------


Maximum memory used throughout the entire EPRNMR-calculation: 305.6 MB

Timings for individual modules:

Sum of individual times         ...     3711.910 sec (=  61.865 min)
GTO integral calculation        ...        1.551 sec (=   0.026 min)   0.0 %
Spin-Orbit-Coupling Matrices    ...       10.584 sec (=   0.176 min)   0.3 %
SCF iterations                  ...      190.775 sec (=   3.180 min)   5.1 %
EPR/NMR calculation             ...     3508.999 sec (=  58.483 min)  94.5 %
                             ****ORCA TERMINATED NORMALLY****
TOTAL RUN TIME: 0 days 1 hours 1 minutes 53 seconds 196 msec
