
                                 *****************
                                 * O   R   C   A *
                                 *****************

                                            #,                                       
                                            ###                                      
                                            ####                                     
                                            #####                                    
                                            ######                                   
                                           ########,                                 
                                     ,,################,,,,,                         
                               ,,#################################,,                 
                          ,,##########################################,,             
                       ,#########################################, ''#####,          
                    ,#############################################,,   '####,        
                  ,##################################################,,,,####,       
                ,###########''''           ''''###############################       
              ,#####''   ,,,,##########,,,,          '''####'''          '####       
            ,##' ,,,,###########################,,,                        '##       
           ' ,,###''''                  '''############,,,                           
         ,,##''                                '''############,,,,        ,,,,,,###''
      ,#''                                            '''#######################'''  
     '                                                          ''''####''''         
             ,#######,   #######,   ,#######,      ##                                
            ,#'     '#,  ##    ##  ,#'     '#,    #''#        ######   ,####,        
            ##       ##  ##   ,#'  ##            #'  '#       #        #'  '#        
            ##       ##  #######   ##           ,######,      #####,   #    #        
            '#,     ,#'  ##    ##  '#,     ,#' ,#      #,         ##   #,  ,#        
             '#######'   ##     ##  '#######'  #'      '#     #####' # '####'        



                  #######################################################
                  #                        -***-                        #
                  #          Department of theory and spectroscopy      #
                  #    Directorship and core code : Frank Neese         #
                  #        Max Planck Institute fuer Kohlenforschung    #
                  #                Kaiser Wilhelm Platz 1               #
                  #                 D-45470 Muelheim/Ruhr               #
                  #                      Germany                        #
                  #                                                     #
                  #                  All rights reserved                #
                  #                        -***-                        #
                  #######################################################


                         Program Version 5.0.4 -  RELEASE  -


 With contributions from (in alphabetic order):
   Daniel Aravena         : Magnetic Suceptibility
   Michael Atanasov       : Ab Initio Ligand Field Theory (pilot matlab implementation)
   Alexander A. Auer      : GIAO ZORA, VPT2 properties, NMR spectrum
   Ute Becker             : Parallelization
   Giovanni Bistoni       : ED, misc. LED, open-shell LED, HFLD
   Martin Brehm           : Molecular dynamics
   Dmytro Bykov           : SCF Hessian
   Vijay G. Chilkuri      : MRCI spin determinant printing, contributions to CSF-ICE
   Dipayan Datta          : RHF DLPNO-CCSD density
   Achintya Kumar Dutta   : EOM-CC, STEOM-CC
   Dmitry Ganyushin       : Spin-Orbit,Spin-Spin,Magnetic field MRCI
   Miquel Garcia          : C-PCM and meta-GGA Hessian, CC/C-PCM, Gaussian charge scheme
   Yang Guo               : DLPNO-NEVPT2, F12-NEVPT2, CIM, IAO-localization
   Andreas Hansen         : Spin unrestricted coupled pair/coupled cluster methods
   Benjamin Helmich-Paris : MC-RPA, TRAH-SCF, COSX integrals
   Lee Huntington         : MR-EOM, pCC
   Robert Izsak           : Overlap fitted RIJCOSX, COSX-SCS-MP3, EOM
   Marcus Kettner         : VPT2
   Christian Kollmar      : KDIIS, OOCD, Brueckner-CCSD(T), CCSD density, CASPT2, CASPT2-K
   Simone Kossmann        : Meta GGA functionals, TD-DFT gradient, OOMP2, MP2 Hessian
   Martin Krupicka        : Initial AUTO-CI
   Lucas Lang             : DCDCAS
   Marvin Lechner         : AUTO-CI (C++ implementation), FIC-MRCC
   Dagmar Lenk            : GEPOL surface, SMD
   Dimitrios Liakos       : Extrapolation schemes; Compound Job, initial MDCI parallelization
   Dimitrios Manganas     : Further ROCIS development; embedding schemes
   Dimitrios Pantazis     : SARC Basis sets
   Anastasios Papadopoulos: AUTO-CI, single reference methods and gradients
   Taras Petrenko         : DFT Hessian,TD-DFT gradient, ASA, ECA, R-Raman, ABS, FL, XAS/XES, NRVS
   Peter Pinski           : DLPNO-MP2, DLPNO-MP2 Gradient
   Christoph Reimann      : Effective Core Potentials
   Marius Retegan         : Local ZFS, SOC
   Christoph Riplinger    : Optimizer, TS searches, QM/MM, DLPNO-CCSD(T), (RO)-DLPNO pert. Triples
   Tobias Risthaus        : Range-separated hybrids, TD-DFT gradient, RPA, STAB
   Michael Roemelt        : Original ROCIS implementation
   Masaaki Saitow         : Open-shell DLPNO-CCSD energy and density
   Barbara Sandhoefer     : DKH picture change effects
   Avijit Sen             : IP-ROCIS
   Kantharuban Sivalingam : CASSCF convergence, NEVPT2, FIC-MRCI
   Bernardo de Souza      : ESD, SOC TD-DFT
   Georgi Stoychev        : AutoAux, RI-MP2 NMR, DLPNO-MP2 response
   Willem Van den Heuvel  : Paramagnetic NMR
   Boris Wezisla          : Elementary symmetry handling
   Frank Wennmohs         : Technical directorship


 We gratefully acknowledge several colleagues who have allowed us to
 interface, adapt or use parts of their codes:
   Stefan Grimme, W. Hujo, H. Kruse, P. Pracht,  : VdW corrections, initial TS optimization,
                  C. Bannwarth, S. Ehlert          DFT functionals, gCP, sTDA/sTD-DF
   Ed Valeev, F. Pavosevic, A. Kumar             : LibInt (2-el integral package), F12 methods
   Garnet Chan, S. Sharma, J. Yang, R. Olivares  : DMRG
   Ulf Ekstrom                                   : XCFun DFT Library
   Mihaly Kallay                                 : mrcc  (arbitrary order and MRCC methods)
   Jiri Pittner, Ondrej Demel                    : Mk-CCSD
   Frank Weinhold                                : gennbo (NPA and NBO analysis)
   Christopher J. Cramer and Donald G. Truhlar   : smd solvation model
   Lars Goerigk                                  : TD-DFT with DH, B97 family of functionals
   V. Asgeirsson, H. Jonsson                     : NEB implementation
   FAccTs GmbH                                   : IRC, NEB, NEB-TS, DLPNO-Multilevel, CI-OPT
                                                   MM, QMMM, 2- and 3-layer-ONIOM, Crystal-QMMM,
                                                   LR-CPCM, SF, NACMEs, symmetry and pop. for TD-DFT,
                                                   nearIR, NL-DFT gradient (VV10), updates on ESD,
                                                   ML-optimized integration grids
   S Lehtola, MJT Oliveira, MAL Marques          : LibXC Library
   Liviu Ungur et al                             : ANISO software


 Your calculation uses the libint2 library for the computation of 2-el integrals
 For citations please refer to: http://libint.valeyev.net

 Your ORCA version has been built with support for libXC version: 5.1.0
 For citations please refer to: https://tddft.org/programs/libxc/

 This ORCA versions uses:
   CBLAS   interface :  Fast vector & matrix operations
   LAPACKE interface :  Fast linear algebra routines
   SCALAPACK package :  Parallel linear algebra routines
   Shared memory     :  Shared parallel matrices
   BLAS/LAPACK       :  OpenBLAS 0.3.15  USE64BITINT DYNAMIC_ARCH NO_AFFINITY Prescott SINGLE_THREADED
        Core in use  :  Prescott
   Copyright (c) 2011-2014, The OpenBLAS Project


================================================================================

----- Orbital basis set information -----
Your calculation utilizes the basis: TZVP 

The basis set includes element-specific modifications.

Your calculation utilizes the basis: CP(PPP) 

----- AuxJ basis set information -----
Your calculation utilizes the auxiliary basis: def2/J
   F. Weigend, Phys. Chem. Chem. Phys. 8, 1057 (2006).

================================================================================
                                        WARNINGS
                       Please study these warnings very carefully!
================================================================================


WARNING: your system is open-shell and RHF/RKS was chosen
  ===> : WILL SWITCH to UHF/UKS


INFO   : the flag for use of the SHARK integral package has been found!

================================================================================
                                       INPUT FILE
================================================================================
NAME = input_21.inp
|  1> ! nofrozencore ReducedPop printbasis
|  2> ! B3LYP TZVP
|  3> 
|  4> %basis
|  5> newgto V "CP(PPP)" end
|  6> end
|  7> 
|  8> %pal
|  9> nprocs 6
| 10> end
| 11> 
| 12> % sym SymThresh 1e-2 end
| 13> * xyz -2 2 
| 14> V -0.2504003692423221 -1.0752276593699832 0.16245690827433584
| 15> S -2.3872607370735976 -0.0005670601652661805 0.8491051905032683
| 16> S -0.8734772753205993 -0.5566967695867757 -2.101450388561945
| 17> S 0.5804273097758019 -0.23568346187574007 2.398743742619184
| 18> S 2.0899385117324973 -0.6709873444167478 -0.49018146853477984
| 19> O -0.4167287457021104 -2.6712278163266308 -0.0033304914658330324
| 20> C 0.6929519164946341 -0.804909537083828 -2.8718452942729895
| 21> C 1.8813757361377264 -0.856763262771423 -2.23707433413521
| 22> C -2.0750184191173133 0.46792354977002487 2.5063353700733075
| 23> C -0.8893010120797705 0.37177164721168443 3.1321928517802675
| 24> S 0.751122742352837 -0.8013080538243782 -4.674233152222356
| 25> S 3.334316947912111 -0.9361082990786423 -3.308213538949406
| 26> S -0.8608636205899737 0.8107461980470003 4.87039512643595
| 27> S -3.4690517483799828 1.0329983245523613 3.477389283486219
| 28> C 2.5119812277031053 -0.9347326637655616 -4.888381494541412
| 29> C -2.5446786854415704 1.3097143755974712 4.944269581850355
| 30> C 3.175262511204137 -1.0349497325624495 -6.09619844089048
| 31> C -3.070988573269104 1.8866425594238574 6.050643931384344
| 32> S 2.4131315074359323 -1.047325126715551 -7.723085000366837
| 33> S 4.958896271324722 -1.1338948044769204 -6.238573810255915
| 34> S -4.76964527817176 2.4034466612372976 6.046667949360797
| 35> S -1.99847579882423 2.1857345436519857 7.437216439366901
| 36> C -2.1941079350253894 4.020864999344229 7.515733032047383
| 37> C -4.458566443452301 4.2019341956630045 6.313735384711731
| 38> C -3.657512199498764 4.468474499403768 7.593314207577212
| 39> H -1.699706381185484 4.46190719770016 6.644393866083259
| 40> H -1.6528013712334084 4.335117614870931 8.411556471298859
| 41> H -3.672786675996433 5.5543254200217 7.795642894962148
| 42> H -4.150672386800475 3.9692476319704983 8.441218321365621
| 43> H -5.4442740122528335 4.672636776202239 6.371329624528287
| 44> H -3.938364870029392 4.598814776513405 5.4363002586253755
| 45> C 5.146908612594226 -2.810506158571753 -7.021387858371208
| 46> C 2.868797894503853 -2.784158082797346 -8.21439567379521
| 47> C 4.377740564882336 -3.0179275744571137 -8.332288830747531
| 48> H 2.4179278988854347 -3.461444786072868 -7.482677039018684
| 49> H 2.382061859839962 -2.952207006903789 -9.179511553411922
| 50> H 4.787701229831062 -2.357837507352829 -9.1113837261358
| 51> H 4.544089082326302 -4.0582910371653025 -8.664007809209759
| 52> H 6.2244922006559396 -2.911421601033378 -7.192518689835961
| 53> H 4.85006494972415 -3.560703683723005 -6.28070018593713
| 54> * 
| 55> 
| 56> % eprnmr
| 57> gtensor true
| 58> Nuclei = all H {aiso,adip,aorb,fgrad,rho}
| 59> Nuclei = all V {aiso,adip,aorb,fgrad,rho}
| 60> end
| 61> 
| 62>                          ****END OF INPUT****
================================================================================

------------------------------------------------------------------------------
                            SYMMETRY HANDLING SETUP
------------------------------------------------------------------------------

------------------
SYMMETRY DETECTION
------------------
The point group will now be determined using a tolerance of 1.0000e-02.
Splitting atom subsets according to nuclear charge, mass and basis set.
Splitting atom subsets according to distance from the molecule's center.
Identifying relative distance patterns of the atoms.
Splitting atom subsets according to atoms' relative distance patterns.
Bring atoms of each subset into input order.
The molecule is neither linear nor planar.
There is at least one atom subset not centered around the molecule's center.
The molecule does not have a center of inversion.
Analyzing the first atom subset for its symmetry.
The subset is an off-center atom pair.
Testing point group C2v.
Test failed.
Testing point group C2.
Test failed.
Testing point group Cs.
Test failed.
Testing point group Cs.
Test failed.
No testing is needed for point group C1.
This point group has been found:    C1
Largest non-degenerate subgroup:    C1


Mass-centered symmetry-perfected Cartesians (point group C1):

Atom          Symmetry-perfected Cartesians (x, y, z; au)
  0      -0.470364659172   -2.027016168094    0.302437951904
  1      -4.508445540804    0.003798051319    1.600015155644
  2      -1.647809372031   -1.047134794425   -3.975726831703
  3       1.099672118653   -0.440507557507    4.528407625709
  4       3.952234886438   -1.263112680542   -0.930869844753
  5      -0.784679738981   -5.043019374437   -0.010854830060
  6       1.312312808679   -1.516188947937   -5.431562218465
  7       3.558108358833   -1.614178288510   -4.232018946038
  8      -3.918393072446    0.889117000410    4.731726335900
  9      -1.677711900921    0.707416237320    5.914425575192
 10       1.422239738535   -1.509383130901   -8.837581657094
 11       6.303769337774   -1.764118677217   -6.256178694443
 12      -1.623973019043    1.536957918160    9.199151839650
 13      -6.552734286311    1.956953569936    6.566752293523
 14       4.749780036438   -1.761519103215   -9.242263376110
 15      -4.805922351783    2.479871123272    9.338754328676
 16       6.003200012011   -1.950901917185  -11.524706624619
 17      -5.800503901352    3.570107389644   11.429498850891
 18       4.562981136719   -1.974288022934  -14.599076672987
 19       9.373779341855   -2.137881005405  -11.793757080936
 20      -9.010499869167    4.546725606959   11.421985333753
 21      -3.773748482519    4.135309328686   14.049741155802
 22      -4.143439642933    7.603203309963   14.198116012937
 23      -8.422646065488    7.945374502295   11.926669645855
 24      -6.908872926000    8.449062680017   14.344723187836
 25      -3.209156105991    8.436652278358   12.551523619505
 26      -3.120518482872    8.197054690177   15.890976977469
 27      -6.937737503420   10.501023542251   14.727068996029
 28      -7.840810620154    7.505660621872   15.947029750721
 29     -10.285363418654    8.834873470044   12.035506985999
 30      -7.439607557284    8.695370107973   10.268557557269
 31       9.729071176652   -5.306217297667  -13.273061245660
 32       5.424065816710   -5.256426650297  -15.527519292439
 33       8.275554215514   -5.698186968000  -15.750305072142
 34       4.572045002989   -6.536313033635  -14.144771465625
 35       4.504268011685   -5.573993093959  -17.351323992413
 36       9.050267597947   -4.450797517452  -17.222581056762
 37       8.589907356267   -7.664188992257  -16.377163094860
 38      11.765409044497   -5.496919846603  -13.596451650199
 39       9.168117949237   -6.723885166548  -11.873364393988


------------------
SYMMETRY REDUCTION
------------------
ORCA supports only abelian point groups.
It is now checked, if the determined point group is supported:
Point Group ( C1    ) is          ... supported

The point group is C1 - hence turning off symmetry
If this is a round-off problem, please increase the symmetry
        detection tolerance (%method SymThresh)

Storing the symmetry object:
Symmetry file                     ... input_21.sym.tmp
Writing symmetry information      ... done

                       ****************************
                       * Single Point Calculation *
                       ****************************

---------------------------------
CARTESIAN COORDINATES (ANGSTROEM)
---------------------------------
  V     -0.248906   -1.072651    0.160043
  S     -2.385767    0.002010    0.846692
  S     -0.871983   -0.554120   -2.103864
  S      0.581921   -0.233107    2.396330
  S      2.091433   -0.668410   -0.492595
  O     -0.415235   -2.668651   -0.005744
  C      0.694446   -0.802333   -2.874259
  C      1.882870   -0.854186   -2.239488
  C     -2.073524    0.470500    2.503922
  C     -0.887807    0.374349    3.129779
  S      0.752617   -0.798731   -4.676647
  S      3.335811   -0.933531   -3.310627
  S     -0.859370    0.813323    4.867981
  S     -3.467558    1.035575    3.474976
  C      2.513475   -0.932156   -4.890795
  C     -2.543185    1.312291    4.941856
  C      3.176757   -1.032373   -6.098612
  C     -3.069494    1.889219    6.048230
  S      2.414626   -1.044748   -7.725499
  S      4.960390   -1.131318   -6.240987
  S     -4.768151    2.406024    6.044254
  S     -1.996982    2.188311    7.434803
  C     -2.192614    4.023442    7.513319
  C     -4.457072    4.204511    6.311322
  C     -3.656018    4.471051    7.590901
  H     -1.698212    4.464484    6.641980
  H     -1.651307    4.337695    8.409143
  H     -3.671293    5.556902    7.793229
  H     -4.149178    3.971825    8.438805
  H     -5.442780    4.675214    6.368916
  H     -3.936871    4.601392    5.433887
  C      5.148403   -2.807929   -7.023801
  C      2.870292   -2.781581   -8.216809
  C      4.379235   -3.015351   -8.334702
  H      2.419422   -3.458868   -7.485091
  H      2.383556   -2.949630   -9.181925
  H      4.789195   -2.355261   -9.113797
  H      4.545583   -4.055714   -8.666421
  H      6.225986   -2.908845   -7.194932
  H      4.851559   -3.558127   -6.283114

----------------------------
CARTESIAN COORDINATES (A.U.)
----------------------------
  NO LB      ZA    FRAG     MASS         X           Y           Z
   0 V    23.0000    0    50.940   -0.470365   -2.027016    0.302438
   1 S    16.0000    0    32.060   -4.508446    0.003798    1.600015
   2 S    16.0000    0    32.060   -1.647809   -1.047135   -3.975727
   3 S    16.0000    0    32.060    1.099672   -0.440508    4.528408
   4 S    16.0000    0    32.060    3.952235   -1.263113   -0.930870
   5 O     8.0000    0    15.999   -0.784680   -5.043019   -0.010855
   6 C     6.0000    0    12.011    1.312313   -1.516189   -5.431562
   7 C     6.0000    0    12.011    3.558108   -1.614178   -4.232019
   8 C     6.0000    0    12.011   -3.918393    0.889117    4.731726
   9 C     6.0000    0    12.011   -1.677712    0.707416    5.914426
  10 S    16.0000    0    32.060    1.422240   -1.509383   -8.837582
  11 S    16.0000    0    32.060    6.303769   -1.764119   -6.256179
  12 S    16.0000    0    32.060   -1.623973    1.536958    9.199152
  13 S    16.0000    0    32.060   -6.552734    1.956954    6.566752
  14 C     6.0000    0    12.011    4.749780   -1.761519   -9.242263
  15 C     6.0000    0    12.011   -4.805922    2.479871    9.338754
  16 C     6.0000    0    12.011    6.003200   -1.950902  -11.524707
  17 C     6.0000    0    12.011   -5.800504    3.570107   11.429499
  18 S    16.0000    0    32.060    4.562981   -1.974288  -14.599077
  19 S    16.0000    0    32.060    9.373779   -2.137881  -11.793757
  20 S    16.0000    0    32.060   -9.010500    4.546726   11.421985
  21 S    16.0000    0    32.060   -3.773748    4.135309   14.049741
  22 C     6.0000    0    12.011   -4.143440    7.603203   14.198116
  23 C     6.0000    0    12.011   -8.422646    7.945375   11.926670
  24 C     6.0000    0    12.011   -6.908873    8.449063   14.344723
  25 H     1.0000    0     1.008   -3.209156    8.436652   12.551524
  26 H     1.0000    0     1.008   -3.120518    8.197055   15.890977
  27 H     1.0000    0     1.008   -6.937738   10.501024   14.727069
  28 H     1.0000    0     1.008   -7.840811    7.505661   15.947030
  29 H     1.0000    0     1.008  -10.285363    8.834873   12.035507
  30 H     1.0000    0     1.008   -7.439608    8.695370   10.268558
  31 C     6.0000    0    12.011    9.729071   -5.306217  -13.273061
  32 C     6.0000    0    12.011    5.424066   -5.256427  -15.527519
  33 C     6.0000    0    12.011    8.275554   -5.698187  -15.750305
  34 H     1.0000    0     1.008    4.572045   -6.536313  -14.144771
  35 H     1.0000    0     1.008    4.504268   -5.573993  -17.351324
  36 H     1.0000    0     1.008    9.050268   -4.450798  -17.222581
  37 H     1.0000    0     1.008    8.589907   -7.664189  -16.377163
  38 H     1.0000    0     1.008   11.765409   -5.496920  -13.596452
  39 H     1.0000    0     1.008    9.168118   -6.723885  -11.873364

--------------------------------
INTERNAL COORDINATES (ANGSTROEM)
--------------------------------
 V      0   0   0     0.000000000000     0.00000000     0.00000000
 S      1   0   0     2.488484176879     0.00000000     0.00000000
 S      1   2   0     2.404657015713    86.79873548     0.00000000
 S      1   2   3     2.529048812742    83.95829983   149.09253986
 S      1   2   3     2.463033325174   144.90113992    81.55220808
 O      1   2   3     1.613185386660   111.53525708   265.71647560
 C      3   1   2     1.763184137198    98.67357707   164.83643043
 C      7   3   1     1.348322719454   125.64516329   342.88932347
 C      2   1   3     1.750254434303   102.92460215   203.50083216
 C      9   2   1     1.344198104866   125.38525811     6.57398860
 S      7   3   1     1.803329921602   117.71554905   170.40943524
 S      8   7   3     1.806840611606   115.55429523   186.64445082
 S     10   9   2     1.793001530712   116.60561357   184.25369061
 S      9   2   1     1.790414512605   117.32993154   190.32329138
 C     11   7   3     1.778843513209    98.74892820   175.15906035
 C     14   9   2     1.755783341452    95.33302094   179.42864260
 C     15  11   7     1.381595924216   125.86760019   177.19311038
 C     16  14   9     1.354220228997   123.03045222   173.56807610
 S     17  15  11     1.796595862928   126.04941918     0.23949053
 S     17  15  11     1.792040809608   123.45568018   178.74339988
 S     18  16  14     1.775538478658   119.60304987   359.76306689
 S     18  16  14     1.778292154363   118.31215839   183.20895732
 C     22  18  16     1.847198034172    97.83727979   119.87697008
 C     21  18  16     1.844628002585    97.01481036   241.80094810
 C     23  22  18     1.532294079026   113.17289216    53.55299954
 H     23  22  18     1.094615484685   108.57930870   290.18074201
 H     23  22  18     1.092825300166   105.54919156   174.31803796
 H     25  23  22     1.104645838800   108.03672006   171.25114277
 H     25  23  22     1.100625195826   109.53807610    54.58848534
 H     24  21  18     1.093845248185   105.97452769   181.93377254
 H     24  21  18     1.094539297119   108.51886440    65.77627136
 C     20  17  15     1.859884971464   100.59270824   117.64610802
 C     19  17  15     1.861614017851    98.13927223   245.44631759
 C     33  19  17     1.531487823711   113.82178425   296.52223908
 H     33  19  17     1.094263767042   107.46519133    60.22276316
 H     33  19  17     1.093892622437   105.50144828   175.44901140
 H     34  33  19     1.100352443318   109.27021534   298.71651334
 H     34  33  19     1.104565726639   108.37722660   182.17328911
 H     32  20  17     1.095744531022   104.36920150   176.75894019
 H     32  20  17     1.095230895759   107.78393893   291.41954661

---------------------------
INTERNAL COORDINATES (A.U.)
---------------------------
 V      0   0   0     0.000000000000     0.00000000     0.00000000
 S      1   0   0     4.702553582898     0.00000000     0.00000000
 S      1   2   0     4.544143205709    86.79873548     0.00000000
 S      1   2   3     4.779209635402    83.95829983   149.09253986
 S      1   2   3     4.654458443301   144.90113992    81.55220808
 O      1   2   3     3.048478584032   111.53525708   265.71647560
 C      3   1   2     3.331935142978    98.67357707   164.83643043
 C      7   3   1     2.547960679913   125.64516329   342.88932347
 C      2   1   3     3.307501545514   102.92460215   203.50083216
 C      9   2   1     2.540166287933   125.38525811     6.57398860
 S      7   3   1     3.407799680934   117.71554905   170.40943524
 S      8   7   3     3.414433923582   115.55429523   186.64445082
 S     10   9   2     3.388281850746   116.60561357   184.25369061
 S      9   2   1     3.383393095021   117.32993154   190.32329138
 C     11   7   3     3.361527075067    98.74892820   175.15906035
 C     14   9   2     3.317949665846    95.33302094   179.42864260
 C     15  11   7     2.610837924509   125.86760019   177.19311038
 C     16  14   9     2.559105357821   123.03045222   173.56807610
 S     17  15  11     3.395074154270   126.04941918     0.23949053
 S     17  15  11     3.386466350969   123.45568018   178.74339988
 S     18  16  14     3.355281464903   119.60304987   359.76306689
 S     18  16  14     3.360485157847   118.31215839   183.20895732
 C     22  18  16     3.490698399703    97.83727979   119.87697008
 C     21  18  16     3.485841743847    97.01481036   241.80094810
 C     23  22  18     2.895616165989   113.17289216    53.55299954
 H     23  22  18     2.068523488005   108.57930870   290.18074201
 H     23  22  18     2.065140529533   105.54919156   174.31803796
 H     25  23  22     2.087478110308   108.03672006   171.25114277
 H     25  23  22     2.079880196204   109.53807610    54.58848534
 H     24  21  18     2.067067951961   105.97452769   181.93377254
 H     24  21  18     2.068379514370   108.51886440    65.77627136
 C     20  17  15     3.514673236662   100.59270824   117.64610802
 C     19  17  15     3.517940660808    98.13927223   245.44631759
 C     33  19  17     2.894092564249   113.82178425   296.52223908
 H     33  19  17     2.067858837983   107.46519133    60.22276316
 H     33  19  17     2.067157476323   105.50144828   175.44901140
 H     34  33  19     2.079364768661   109.27021534   298.71651334
 H     34  33  19     2.087326720264   108.37722660   182.17328911
 H     32  20  17     2.070657076374   104.36920150   176.75894019
 H     32  20  17     2.069686446394   107.78393893   291.41954661

---------------------
BASIS SET INFORMATION
---------------------
There are 5 groups of distinct atoms

 Group   1 Type V   : 17s11p5d1f contracted to 17s7p3d1f pattern {11111111111111111/3311111/311/1}
 Group   2 Type S   : 14s9p1d contracted to 5s4p1d pattern {73211/6111/1}
 Group   3 Type O   : 11s6p1d contracted to 5s3p1d pattern {62111/411/1}
 Group   4 Type C   : 11s6p1d contracted to 5s3p1d pattern {62111/411/1}
 Group   5 Type H   : 5s1p contracted to 3s1p pattern {311/1}

Atom   0V    basis set group =>   1
Atom   1S    basis set group =>   2
Atom   2S    basis set group =>   2
Atom   3S    basis set group =>   2
Atom   4S    basis set group =>   2
Atom   5O    basis set group =>   3
Atom   6C    basis set group =>   4
Atom   7C    basis set group =>   4
Atom   8C    basis set group =>   4
Atom   9C    basis set group =>   4
Atom  10S    basis set group =>   2
Atom  11S    basis set group =>   2
Atom  12S    basis set group =>   2
Atom  13S    basis set group =>   2
Atom  14C    basis set group =>   4
Atom  15C    basis set group =>   4
Atom  16C    basis set group =>   4
Atom  17C    basis set group =>   4
Atom  18S    basis set group =>   2
Atom  19S    basis set group =>   2
Atom  20S    basis set group =>   2
Atom  21S    basis set group =>   2
Atom  22C    basis set group =>   4
Atom  23C    basis set group =>   4
Atom  24C    basis set group =>   4
Atom  25H    basis set group =>   5
Atom  26H    basis set group =>   5
Atom  27H    basis set group =>   5
Atom  28H    basis set group =>   5
Atom  29H    basis set group =>   5
Atom  30H    basis set group =>   5
Atom  31C    basis set group =>   4
Atom  32C    basis set group =>   4
Atom  33C    basis set group =>   4
Atom  34H    basis set group =>   5
Atom  35H    basis set group =>   5
Atom  36H    basis set group =>   5
Atom  37H    basis set group =>   5
Atom  38H    basis set group =>   5
Atom  39H    basis set group =>   5

-------------------------
BASIS SET IN INPUT FORMAT
-------------------------

 # Basis set for element : H 
 NewGTO H 
 S 3 
   1      34.0613410000      0.0254393168
   2       5.1235746000      0.1900859340
   3       1.1646626000      0.8524411390
 S 1 
   1       0.3272304100      1.0000000000
 S 1 
   1       0.1030724100      1.0000000000
 P 1 
   1       0.8000000000      1.0000000000
  end;

 # Basis set for element : C 
 NewGTO C 
 S 6 
   1   13575.3496820000      0.0006064601
   2    2035.2333680000      0.0046978985
   3     463.2256235900      0.0243324735
   4     131.2001959800      0.0973999560
   5      42.8530158900      0.3019558443
   6      15.5841857700      0.6623361013
 S 2 
   1       6.2067138500      0.6559530795
   2       2.5764896500      0.3758563390
 S 1 
   1       0.5769633900      1.0000000000
 S 1 
   1       0.2297283100      1.0000000000
 S 1 
   1       0.0951644400      1.0000000000
 P 4 
   1      34.6972322400      0.0113272290
   2       7.9582622800      0.0761696612
   3       2.3780826900      0.3019225154
   4       0.8143320800      0.7278502776
 P 1 
   1       0.2888754700      1.0000000000
 P 1 
   1       0.1005682400      1.0000000000
 D 1 
   1       0.8000000000      1.0000000000
  end;

 # Basis set for element : O 
 NewGTO O 
 S 6 
   1   27032.3826310000      0.0005722654
   2    4052.3871392000      0.0044353333
   3     922.3272271000      0.0230201034
   4     261.2407098900      0.0928224938
   5      85.3546413500      0.2937849971
   6      31.0350352400      0.6740160462
 S 2 
   1      12.2608607300      0.6383993750
   2       4.9987076000      0.3953458663
 S 1 
   1       1.1703108200      1.0000000000
 S 1 
   1       0.4647474100      1.0000000000
 S 1 
   1       0.1850453600      1.0000000000
 P 4 
   1      63.2749548000      0.0120183316
   2      14.6270493800      0.0830054304
   3       4.4501223500      0.3199174388
   4       1.5275799600      0.7071554258
 P 1 
   1       0.5293511800      1.0000000000
 P 1 
   1       0.1747842100      1.0000000000
 D 1 
   1       1.2000000000      1.0000000000
  end;

 # Basis set for element : S 
 NewGTO S 
 S 7 
   1   60700.9281040000      0.0005238013
   2    9102.6106854000      0.0040506304
   3    2071.4166009000      0.0208270003
   4     586.0247682100      0.0814968475
   5     190.5539502100      0.2374911358
   6      67.6303842600      0.4472617145
   7      25.1273069100      0.3489191913
 S 3 
   1     112.5746301000      0.1004556993
   2      34.7955542200      0.4339117282
   3       6.5115556200     -1.2084330582
 S 2 
   1       3.2399032300      0.6749812922
   2       1.5477160900      0.3470879597
 S 1 
   1       0.4054103000      1.0000000000
 S 1 
   1       0.1455065100      1.0000000000
 P 6 
   1     564.3671602700      0.0025564845
   2     133.4262437900      0.0202874255
   3      42.4682711900      0.0927670112
   4      15.6165275800      0.2650208365
   5       6.1093988500      0.4486298663
   6       2.4404160200      0.3596369916
 P 1 
   1       0.8388220100      1.0000000000
 P 1 
   1       0.3128874700      1.0000000000
 P 1 
   1       0.1077010900      1.0000000000
 D 1 
   1       0.5500000000      1.0000000000
  end;

 # Basis set for element : V 
 NewGTO V 
 S 1 
   1  4239814.9912500000      1.0000000000
 S 1 
   1  1695925.9965000001      1.0000000000
 S 1 
   1  678370.3986000001      1.0000000000
 S 1 
   1  271348.1594400000      1.0000000000
 S 1 
   1   40672.0050780000      1.0000000000
 S 1 
   1    9257.0761385000      1.0000000000
 S 1 
   1    2622.7328773000      1.0000000000
 S 1 
   1     858.5948018500      1.0000000000
 S 1 
   1     314.1941865000      1.0000000000
 S 1 
   1     124.4786212700      1.0000000000
 S 1 
   1      50.4693993090      1.0000000000
 S 1 
   1      12.5138469110      1.0000000000
 S 1 
   1       5.3447758082      1.0000000000
 S 1 
   1       1.5755631295      1.0000000000
 S 1 
   1       0.6306903307      1.0000000000
 S 1 
   1       0.0879544416      1.0000000000
 S 1 
   1       0.0342969197      1.0000000000
 P 3 
   1    1450.0319327000     -0.0222847647
   2     343.7504988400     -0.1817959329
   3     110.8252170800     -0.8607412073
 P 3 
   1      41.8224645460     -0.2522537814
   2      17.0880737100     -0.4620379520
   3       7.2613218939     -0.3990010670
 P 1 
   1       2.9458145262      1.0000000000
 P 1 
   1       1.1650209680      1.0000000000
 P 1 
   1       0.4339937839      1.0000000000
 D 3 
   1      27.3603358640      0.0575501019
   2       7.4542765527      0.3023798347
   3       2.4632270217      0.7724212088
 D 1 
   1       0.8249954244      1.0000000000
 D 1 
   1       0.2526297057      1.0000000000
 P 1 
   1       0.1112480000      1.0000000000
 P 1 
   1       0.0363780000      1.0000000000
 F 1 
   1       1.8000000000      1.0000000000
  end;

---------------------------------
AUXILIARY/J BASIS SET INFORMATION
---------------------------------
There are 5 groups of distinct atoms

 Group   1 Type V   : 19s5p5d3f3g contracted to 8s5p5d2f3g pattern {121111111/11111/11111/21/111}
 Group   2 Type S   : 14s5p5d2f1g contracted to 8s4p3d1f1g pattern {71111111/2111/311/2/1}
 Group   3 Type O   : 12s5p4d2f1g contracted to 6s4p3d1f1g pattern {711111/2111/211/2/1}
 Group   4 Type C   : 12s5p4d2f1g contracted to 6s4p3d1f1g pattern {711111/2111/211/2/1}
 Group   5 Type H   : 5s2p1d contracted to 3s1p1d pattern {311/2/1}

Atom   0V    basis set group =>   1
Atom   1S    basis set group =>   2
Atom   2S    basis set group =>   2
Atom   3S    basis set group =>   2
Atom   4S    basis set group =>   2
Atom   5O    basis set group =>   3
Atom   6C    basis set group =>   4
Atom   7C    basis set group =>   4
Atom   8C    basis set group =>   4
Atom   9C    basis set group =>   4
Atom  10S    basis set group =>   2
Atom  11S    basis set group =>   2
Atom  12S    basis set group =>   2
Atom  13S    basis set group =>   2
Atom  14C    basis set group =>   4
Atom  15C    basis set group =>   4
Atom  16C    basis set group =>   4
Atom  17C    basis set group =>   4
Atom  18S    basis set group =>   2
Atom  19S    basis set group =>   2
Atom  20S    basis set group =>   2
Atom  21S    basis set group =>   2
Atom  22C    basis set group =>   4
Atom  23C    basis set group =>   4
Atom  24C    basis set group =>   4
Atom  25H    basis set group =>   5
Atom  26H    basis set group =>   5
Atom  27H    basis set group =>   5
Atom  28H    basis set group =>   5
Atom  29H    basis set group =>   5
Atom  30H    basis set group =>   5
Atom  31C    basis set group =>   4
Atom  32C    basis set group =>   4
Atom  33C    basis set group =>   4
Atom  34H    basis set group =>   5
Atom  35H    basis set group =>   5
Atom  36H    basis set group =>   5
Atom  37H    basis set group =>   5
Atom  38H    basis set group =>   5
Atom  39H    basis set group =>   5

-------------------------------------
AUXILIARY/J BASIS SET IN INPUT FORMAT
-------------------------------------

 # Auxiliary/J basis set for element : H 
 NewAuxJGTO H 
 S 3 
   1      15.6752927000      0.1007184237
   2       3.6063578000      0.3404257499
   3       1.2080016000      0.6491996172
 S 1 
   1       0.4726794000      1.0000000000
 S 1 
   1       0.2018100000      1.0000000000
 P 2 
   1       2.0281365000      0.5596620919
   2       0.5358730000      0.5596620919
 D 1 
   1       2.2165124000      1.0000000000
  end;

 # Auxiliary/J basis set for element : C 
 NewAuxJGTO C 
 S 7 
   1    1861.0916331000      0.0134602335
   2     642.9939764000      0.0299160374
   3     235.1105725000      0.1008649584
   4      90.7028894000      0.2370970548
   5      36.7794552000      0.3924037254
   6      15.6046273000      0.3195862154
   7       6.8907294000      0.0530104441
 S 1 
   1       3.1478850000     -1.0000000000
 S 1 
   1       1.4777287000      1.0000000000
 S 1 
   1       0.7076466000      1.0000000000
 S 1 
   1       0.3430122000      1.0000000000
 S 1 
   1       0.1669453000      1.0000000000
 P 2 
   1      13.5472892000     -0.6769313712
   2       5.4669419000     -0.3779500978
 P 1 
   1       2.1751721000      1.0000000000
 P 1 
   1       0.8582194000      1.0000000000
 P 1 
   1       0.3376720000      1.0000000000
 D 2 
   1       5.9287253000     -0.3533329857
   2       1.9809209000     -0.7456525731
 D 1 
   1       0.8055417000     -1.0000000000
 D 1 
   1       0.3531244000     -1.0000000000
 F 2 
   1       1.6755626000      0.6311076882
   2       0.5997536000      0.4968166032
 G 1 
   1       1.0024600000     -1.0000000000
  end;

 # Auxiliary/J basis set for element : O 
 NewAuxJGTO O 
 S 7 
   1    2876.8216605000      0.0168151159
   2    1004.7443032000      0.0340137548
   3     369.7579954000      0.1194951309
   4     142.9442404000      0.2664627624
   5      57.8366425000      0.4202764046
   6      24.3864983000      0.2765077335
   7      10.6622662000      0.0057008815
 S 1 
   1       4.8070437000     -1.0000000000
 S 1 
   1       2.2210770000      1.0000000000
 S 1 
   1       1.0447795000      1.0000000000
 S 1 
   1       0.4968425000      1.0000000000
 S 1 
   1       0.2371384000      1.0000000000
 P 2 
   1      64.2613382000     -0.2731534179
   2      16.3006076000     -0.8168011598
 P 1 
   1       4.3550542000      1.0000000000
 P 1 
   1       1.2019554000      1.0000000000
 P 1 
   1       0.3354196000      1.0000000000
 D 2 
   1       9.2146611000     -0.4661230638
   2       2.8435251000     -0.6600908911
 D 1 
   1       0.9955759000     -1.0000000000
 D 1 
   1       0.3649441000     -1.0000000000
 F 2 
   1       2.6420115000      0.5931563945
   2       0.7345613000      0.5931563945
 G 1 
   1       1.3931000000     -1.0000000000
  end;

 # Auxiliary/J basis set for element : S 
 NewAuxJGTO S 
 S 7 
   1    7399.0303145000      0.0295137551
   2    2710.1675859000      0.0559686311
   3    1034.3279062000      0.1764696370
   4     410.4645411000      0.3577969368
   5     168.9762502000      0.4299293578
   6      71.9687889000      0.1259148089
   7      31.6172683000     -0.0646025788
 S 1 
   1      14.2796836000      1.0000000000
 S 1 
   1       6.6060948000      1.0000000000
 S 1 
   1       3.1181477000      1.0000000000
 S 1 
   1       1.4954039000     -1.0000000000
 S 1 
   1       0.7254779000      1.0000000000
 S 1 
   1       0.3544216000      1.0000000000
 S 1 
   1       0.1735525000      1.0000000000
 P 2 
   1      12.6998799000      1.4059102813
   2       4.4295784000     -1.2124994202
 P 1 
   1       1.5232889000      1.0000000000
 P 1 
   1       0.5194667000     -1.0000000000
 P 1 
   1       0.1766547000     -1.0000000000
 D 3 
   1      16.8546461000      1.0295742104
   2       5.0810461000     -0.7461553923
   3       1.5102323000      0.8357028005
 D 1 
   1       0.4451331000      1.0000000000
 D 1 
   1       0.1308362000      1.0000000000
 F 2 
   1       1.0809860000      0.5572698934
   2       0.4161474000      0.5572698934
 G 1 
   1       0.6707100000     -1.0000000000
  end;

 # Auxiliary/J basis set for element : V 
 NewAuxJGTO V 
 S 12 
   1   11942.0842430000      0.0459866720
   2    2430.7110193000      0.1744615821
   3     841.0764301000      0.2900402792
   4     494.7508273000      0.1411212903
   5     291.0298903000      0.2660697186
   6     171.1940483000      0.0446365706
   7      59.2366916000     -0.0408204801
   8      34.8451117000      0.1394665381
   9      20.4971240000      0.2164746715
  10      12.0571314000      0.0864266611
  11       7.0924300000     -0.0568501658
  12       4.1720176000     -0.0126212852
 S 1 
   1       2.4541279000      1.0000000000
 S 1 
   1       1.4436046000      1.0000000000
 S 1 
   1       0.8491792000      1.0000000000
 S 1 
   1       0.2938336000      1.0000000000
 S 1 
   1       0.1728433000      1.0000000000
 S 1 
   1       0.1016725000      1.0000000000
 S 1 
   1       0.0598074000      1.0000000000
 P 1 
   1      16.7130979000     -1.0000000000
 P 1 
   1       4.7454037000     -1.0000000000
 P 1 
   1       1.3889998000      1.0000000000
 P 1 
   1       0.4142440000     -1.0000000000
 P 1 
   1       0.1243234000      1.0000000000
 D 1 
   1       7.7143225000      1.0000000000
 D 1 
   1       3.1170731000      1.0000000000
 D 1 
   1       1.2767950000     -1.0000000000
 D 1 
   1       0.5273386000      1.0000000000
 D 1 
   1       0.2184050000      1.0000000000
 F 2 
   1       3.1309344000     -1.0825667766
   2       1.0419780000      0.1809223232
 F 1 
   1       0.3559044000      1.0000000000
 G 1 
   1       8.7130110000      1.0000000000
 G 1 
   1       2.7493872000      1.0000000000
 G 1 
   1       0.8775089000      1.0000000000
  end;



           ************************************************************
           *        Program running with 6 parallel MPI-processes     *
           *              working on a common directory               *
           ************************************************************
------------------------------------------------------------------------------
                           ORCA GTO INTEGRAL CALCULATION
                           -- RI-GTO INTEGRALS CHOSEN --
------------------------------------------------------------------------------
------------------------------------------------------------------------------
                   ___                                                        
                  /   \      - P O W E R E D   B Y -                         
                 /     \                                                     
                 |  |  |   _    _      __       _____    __    __             
                 |  |  |  | |  | |    /  \     |  _  \  |  |  /  |          
                  \  \/   | |  | |   /    \    | | | |  |  | /  /          
                 / \  \   | |__| |  /  /\  \   | |_| |  |  |/  /          
                |  |  |   |  __  | /  /__\  \  |    /   |      \           
                |  |  |   | |  | | |   __   |  |    \   |  |\   \          
                \     /   | |  | | |  |  |  |  | |\  \  |  | \   \       
                 \___/    |_|  |_| |__|  |__|  |_| \__\ |__|  \__/        
                                                                              
                      - O R C A' S   B I G   F R I E N D -                    
                                      &                                       
                       - I N T E G R A L  F E E D E R -                       
                                                                              
 v1 FN, 2020, v2 2021                                                         
------------------------------------------------------------------------------


Reading SHARK input file input_21.SHARKINP.tmp ... ok
----------------------
SHARK INTEGRAL PACKAGE
----------------------

Number of atoms                             ...     40
Number of basis functions                   ...    681
Number of shells                            ...    331
Maximum angular momentum                    ...      3
Integral batch strategy                     ... SHARK/LIBINT Hybrid
RI-J (if used) integral strategy            ... SPLIT-RIJ (Revised 2003 algorithm where possible)
Printlevel                                  ...      1
Contraction scheme used                     ... SEGMENTED contraction
Coulomb Range Separation                    ... NOT USED
Exchange Range Separation                   ... NOT USED
Finite Nucleus Model                        ... NOT USED
Auxiliary Coulomb fitting basis             ... AVAILABLE
   # of basis functions in Aux-J            ...   1568
   # of shells in Aux-J                     ...    512
   Maximum angular momentum in Aux-J        ...      4
Auxiliary J/K fitting basis                 ... NOT available
Auxiliary Correlation fitting basis         ... NOT available
Auxiliary 'external' fitting basis          ... NOT available
Integral threshold                          ...     1.000000e-10
Primitive cut-off                           ...     1.000000e-11
Primitive pair pre-selection threshold      ...     1.000000e-11

Calculating pre-screening integrals         ... done (  0.1 sec) Dimension = 331
Organizing shell pair data                  ... done (  0.1 sec)
Shell pair information
Total number of shell pairs                 ...     54946
Shell pairs after pre-screening             ...     22692
Total number of primitive shell pairs       ...    221635
Primitive shell pairs kept                  ...     55458
          la=0 lb=0:   6404 shell pairs
          la=1 lb=0:   9107 shell pairs
          la=1 lb=1:   3205 shell pairs
          la=2 lb=0:   2126 shell pairs
          la=2 lb=1:   1531 shell pairs
          la=2 lb=2:    195 shell pairs
          la=3 lb=0:     56 shell pairs
          la=3 lb=1:     55 shell pairs
          la=3 lb=2:     12 shell pairs
          la=3 lb=3:      1 shell pairs

Calculating one electron integrals          ... done (  0.0 sec)
Calculating RI/J V-Matrix + Cholesky decomp.... done (  0.2 sec)
Calculating Nuclear repulsion               ... done (  0.0 sec) ENN=   5062.142645353281 Eh

SHARK setup successfully completed in   0.7 seconds

Maximum memory used throughout the entire GTOINT-calculation: 41.8 MB


           ************************************************************
           *        Program running with 6 parallel MPI-processes     *
           *              working on a common directory               *
           ************************************************************
-------------------------------------------------------------------------------
                                 ORCA SCF
-------------------------------------------------------------------------------

------------
SCF SETTINGS
------------
Hamiltonian:
 Density Functional     Method          .... DFT(GTOs)
 Exchange Functional    Exchange        .... B88
   X-Alpha parameter    XAlpha          ....  0.666667
   Becke's b parameter  XBeta           ....  0.004200
 Correlation Functional Correlation     .... LYP
 LDA part of GGA corr.  LDAOpt          .... VWN-5
 Gradients option       PostSCFGGA      .... off
 Hybrid DFT is turned on
   Fraction HF Exchange ScalHFX         ....  0.200000
   Scaling of DF-GGA-X  ScalDFX         ....  0.720000
   Scaling of DF-GGA-C  ScalDFC         ....  0.810000
   Scaling of DF-LDA-C  ScalLDAC        ....  1.000000
   Perturbative correction              ....  0.000000
   Density functional embedding theory  .... OFF
   NL short-range parameter             ....  4.800000
 RI-approximation to the Coulomb term is turned on
   Number of AuxJ basis functions       .... 1568
   RIJ-COSX (HFX calculated with COS-X)).... on


General Settings:
 Integral files         IntName         .... input_21
 Hartree-Fock type      HFTyp           .... UHF
 Total Charge           Charge          ....   -2
 Multiplicity           Mult            ....    2
 Number of Electrons    NEL             ....  321
 Basis Dimension        Dim             ....  681
 Nuclear Repulsion      ENuc            ....   5062.1426453533 Eh

Convergence Acceleration:
 DIIS                   CNVDIIS         .... on
   Start iteration      DIISMaxIt       ....    12
   Startup error        DIISStart       ....  0.200000
   # of expansion vecs  DIISMaxEq       ....     5
   Bias factor          DIISBfac        ....   1.050
   Max. coefficient     DIISMaxC        ....  10.000
 Trust-Rad. Augm. Hess. CNVTRAH         .... auto
   Auto Start mean grad. ratio tolernc. ....  1.125000
   Auto Start start iteration           ....    20
   Auto Start num. interpolation iter.  ....    10
   Max. Number of Micro iterations      ....    16
   Max. Number of Macro iterations      .... Maxiter - #DIIS iter
   Number of Davidson start vectors     ....     2
   Converg. threshold I  (grad. norm)   ....   5.000e-05
   Converg. threshold II (energy diff.) ....   1.000e-06
   Grad. Scal. Fac. for Micro threshold ....   0.100
   Minimum threshold for Micro iter.    ....   0.010
   NR start threshold (gradient norm)   ....   0.001
   Initial trust radius                 ....   0.400
   Minimum AH scaling param. (alpha)    ....   1.000
   Maximum AH scaling param. (alpha)    .... 1000.000
   Orbital update algorithm             .... Taylor
   White noise on init. David. guess    .... on
   Maximum white noise                  ....   0.010
   Quad. conv. algorithm                .... NR
 SOSCF                  CNVSOSCF        .... off
 Level Shifting         CNVShift        .... on
   Level shift para.    LevelShift      ....    0.2500
   Turn off err/grad.   ShiftErr        ....    0.0010
 Zerner damping         CNVZerner       .... off
 Static damping         CNVDamp         .... on
   Fraction old density DampFac         ....    0.7000
   Max. Damping (<1)    DampMax         ....    0.9800
   Min. Damping (>=0)   DampMin         ....    0.0000
   Turn off err/grad.   DampErr         ....    0.1000
 Fernandez-Rico         CNVRico         .... off

SCF Procedure:
 Maximum # iterations   MaxIter         ....   125
 SCF integral mode      SCFMode         .... Direct
   Integral package                     .... SHARK and LIBINT hybrid scheme
 Reset frequency        DirectResetFreq ....    20
 Integral Threshold     Thresh          ....  1.000e-10 Eh
 Primitive CutOff       TCut            ....  1.000e-11 Eh

Convergence Tolerance:
 Convergence Check Mode ConvCheckMode   .... Total+1el-Energy
 Convergence forced     ConvForced      .... 0
 Energy Change          TolE            ....  1.000e-06 Eh
 1-El. energy change                    ....  1.000e-03 Eh
 DIIS Error             TolErr          ....  1.000e-06


Diagonalization of the overlap matrix:
Smallest eigenvalue                        ... 8.286e-05
Time for diagonalization                   ...    0.184 sec
Threshold for overlap eigenvalues          ... 1.000e-08
Number of eigenvalues below threshold      ... 0
Time for construction of square roots      ...    0.158 sec
Total time needed                          ...    0.345 sec

Time for model grid setup =    0.390 sec

------------------------------
INITIAL GUESS: MODEL POTENTIAL
------------------------------
Loading Hartree-Fock densities                     ... done
Calculating cut-offs                               ... done
Initializing the effective Hamiltonian             ... done
Setting up the integral package (SHARK)            ... done
Starting the Coulomb interaction                   ... done (   0.4 sec)
Reading the grid                                   ... done
Mapping shells                                     ... done
Starting the XC term evaluation                    ... done (   0.2 sec)
  promolecular density results
     # of electrons  =    318.986197955
     EX              =   -428.245700850
     EC              =    -12.535958480
     EX+EC           =   -440.781659330
Transforming the Hamiltonian                       ... done (   0.2 sec)
Diagonalizing the Hamiltonian                      ... done (   0.2 sec)
Back transforming the eigenvectors                 ... done (   0.1 sec)
Now organizing SCF variables                       ... done
                      ------------------
                      INITIAL GUESS DONE (   1.5 sec)
                      ------------------
-------------------
DFT GRID GENERATION
-------------------

General Integration Accuracy     IntAcc      ... 4.388
Radial Grid Type                 RadialGrid  ... OptM3 with GC (2021)
Angular Grid (max. ang.)         AngularGrid ... 4 (Lebedev-302)
Angular grid pruning method      GridPruning ... 4 (adaptive)
Weight generation scheme         WeightScheme... Becke
Basis function cutoff            BFCut       ... 1.0000e-10
Integration weight cutoff        WCut        ... 1.0000e-14
Angular grids for H and He will be reduced by one unit
Partially contracted basis set               ... off
Rotationally invariant grid construction     ... off

Total number of grid points                  ...   237153
Total number of batches                      ...     3728
Average number of points per batch           ...       63
Average number of grid points per atom       ...     5929
Time for grid setup =    1.926 sec

--------------------
COSX GRID GENERATION
--------------------

GRIDX 1
-------
General Integration Accuracy     IntAcc      ... 3.816
Radial Grid Type                 RadialGrid  ... OptM3 with GC (2021)
Angular Grid (max. ang.)         AngularGrid ... 1 (Lebedev-50)
Angular grid pruning method      GridPruning ... 4 (adaptive)
Weight generation scheme         WeightScheme... Becke
Basis function cutoff            BFCut       ... 1.0000e-10
Integration weight cutoff        WCut        ... 1.0000e-14
Angular grids for H and He will be reduced by one unit
Partially contracted basis set               ... on
Rotationally invariant grid construction     ... off

Total number of grid points                  ...    29222
Total number of batches                      ...      482
Average number of points per batch           ...       60
Average number of grid points per atom       ...      731
UseSFitting                                  ... on

GRIDX 2
-------
General Integration Accuracy     IntAcc      ... 4.020
Radial Grid Type                 RadialGrid  ... OptM3 with GC (2021)
Angular Grid (max. ang.)         AngularGrid ... 2 (Lebedev-110)
Angular grid pruning method      GridPruning ... 4 (adaptive)
Weight generation scheme         WeightScheme... Becke
Basis function cutoff            BFCut       ... 1.0000e-10
Integration weight cutoff        WCut        ... 1.0000e-14
Angular grids for H and He will be reduced by one unit
Partially contracted basis set               ... on
Rotationally invariant grid construction     ... off

Total number of grid points                  ...    64031
Total number of batches                      ...     1020
Average number of points per batch           ...       62
Average number of grid points per atom       ...     1601
UseSFitting                                  ... on

GRIDX 3
-------
General Integration Accuracy     IntAcc      ... 4.338
Radial Grid Type                 RadialGrid  ... OptM3 with GC (2021)
Angular Grid (max. ang.)         AngularGrid ... 3 (Lebedev-194)
Angular grid pruning method      GridPruning ... 4 (adaptive)
Weight generation scheme         WeightScheme... Becke
Basis function cutoff            BFCut       ... 1.0000e-10
Integration weight cutoff        WCut        ... 1.0000e-14
Angular grids for H and He will be reduced by one unit
Partially contracted basis set               ... on
Rotationally invariant grid construction     ... off

Total number of grid points                  ...   147093
Total number of batches                      ...     2322
Average number of points per batch           ...       63
Average number of grid points per atom       ...     3677
UseSFitting                                  ... on

Time for X-Grid setup             =    2.174 sec

--------------
SCF ITERATIONS
--------------
ITER       Energy         Delta-E        Max-DP      RMS-DP      [F,P]     Damp
               ***  Starting incremental Fock matrix formation  ***
  0  -6336.8645488052   0.000000000000 0.05474348  0.00071570  0.2367607 0.7000
  1  -6337.1975517696  -0.333002964401 0.13786209  0.00073454  0.1557063 0.7000
                               ***Turning on DIIS***
  2  -6337.3688350270  -0.171283257392 0.06388116  0.00038827  0.1089821 0.7000
  3  -6337.4597914713  -0.090956444247 0.06797621  0.00061183  0.0772006 0.0000
  4  -6337.6841342161  -0.224342744872 0.08621688  0.00040412  0.0128537 0.0000
  5  -6337.6905293029  -0.006395086815 0.02046458  0.00009658  0.0116366 0.0000
  6  -6337.6920117464  -0.001482443456 0.00489109  0.00004601  0.0041430 0.0000
  7  -6337.6924870417  -0.000475295304 0.00334273  0.00002879  0.0015837 0.0000
  8  -6337.6927245660  -0.000237524322 0.00394879  0.00002497  0.0018438 0.0000
  9  -6337.6928887544  -0.000164188338 0.00274956  0.00002076  0.0012270 0.0000
 10  -6337.6929988042  -0.000110049805 0.00569169  0.00005138  0.0008148 0.0000
               *** Restarting incremental Fock matrix formation ***
                                   *** Resetting DIIS ***
 11  -6337.6931171047  -0.000118300543 0.00169866  0.00001407  0.0009720 0.0000
 12  -6337.6930768248   0.000040279904 0.00049239  0.00000342  0.0029433 0.0000
 13  -6337.6931231375  -0.000046312724 0.00064437  0.00000398  0.0010228 0.0000
 14  -6337.6931302407  -0.000007103193 0.00078226  0.00000462  0.0004347 0.0000
 15  -6337.6931328036  -0.000002562831 0.00031172  0.00000238  0.0002429 0.0000
 16  -6337.6931338739  -0.000001070389 0.00013039  0.00000129  0.0001132 0.0000
 17  -6337.6931343452  -0.000000471266 0.00011697  0.00000123  0.0000922 0.0000
 18  -6337.6931344688  -0.000000123592 0.00012516  0.00000081  0.0000794 0.0000
 19  -6337.6931346028  -0.000000133995 0.00027290  0.00000086  0.0000266 0.0000
                 **** Energy Check signals convergence ****

               *****************************************************
               *                     SUCCESS                       *
               *           SCF CONVERGED AFTER  20 CYCLES          *
               *****************************************************

Old exchange energy                            =    -85.921053572 Eh
New exchange energy                            =    -85.921043674 Eh
Exchange energy change after final integration =      0.000009897 Eh
Total energy after final integration           =  -6337.693124618 Eh
Final COS-X integration done in                =    28.336 sec

----------------
TOTAL SCF ENERGY
----------------

Total Energy       :        -6337.69312462 Eh         -172457.39749 eV

Components:
Nuclear Repulsion  :         5062.14264535 Eh          137747.90435 eV
Electronic Energy  :       -11399.83576997 Eh         -310205.30183 eV
One Electron Energy:       -18894.69522419 Eh         -514150.79597 eV
Two Electron Energy:         7494.85945422 Eh          203945.49414 eV
Max COSX asymmetry :            0.00000114 Eh               0.00003 eV

Virial components:
Potential Energy   :       -12658.83835467 Eh         -344464.50387 eV
Kinetic Energy     :         6321.14523005 Eh          172007.10638 eV
Virial Ratio       :            2.00261786


DFT components:
N(Alpha)           :      161.000067630099 electrons
N(Beta)            :      160.000070196309 electrons
N(Total)           :      321.000137826408 electrons
E(X)               :     -341.441958605963 Eh       
E(C)               :      -14.720086441032 Eh       
E(XC)              :     -356.162045046995 Eh       
DFET-embed. en.    :        0.000000000000 Eh       

---------------
SCF CONVERGENCE
---------------

  Last Energy change         ...    8.7255e-08  Tolerance :   1.0000e-06
  Last MAX-Density change    ...    0.0000e+00  Tolerance :   1.0000e-05
  Last RMS-Density change    ...    0.0000e+00  Tolerance :   1.0000e-06
  Last DIIS Error            ...    1.7879e-05  Tolerance :   1.0000e-06

             **** THE GBW FILE WAS UPDATED (input_21.gbw) ****
             **** DENSITY input_21.scfp WAS UPDATED ****
             **** ENERGY FILE WAS UPDATED (input_21.en.tmp) ****
----------------------
UHF SPIN CONTAMINATION
----------------------

Warning: in a DFT calculation there is little theoretical justification to 
         calculate <S**2> as in Hartree-Fock theory. We will do it anyways
         but you should keep in mind that the values have only limited relevance

Expectation value of <S**2>     :     0.768073
Ideal value S*(S+1) for S=0.5   :     0.750000
Deviation                       :     0.018073

             **** THE GBW FILE WAS UPDATED (input_21.gbw) ****
             **** DENSITY input_21.scfp WAS UPDATED ****
----------------
ORBITAL ENERGIES
----------------
                 SPIN UP ORBITALS
  NO   OCC          E(Eh)            E(eV) 
   0   1.0000    -196.676190     -5351.8312 
   1   1.0000     -88.735517     -2414.6162 
   2   1.0000     -88.734565     -2414.5903 
   3   1.0000     -88.732796     -2414.5421 
   4   1.0000     -88.731820     -2414.5156 
   5   1.0000     -88.731178     -2414.4981 
   6   1.0000     -88.730993     -2414.4931 
   7   1.0000     -88.728026     -2414.4123 
   8   1.0000     -88.727555     -2414.3995 
   9   1.0000     -88.642409     -2412.0826 
  10   1.0000     -88.641238     -2412.0507 
  11   1.0000     -88.638394     -2411.9733 
  12   1.0000     -88.636752     -2411.9286 
  13   1.0000     -22.051321      -600.0470 
  14   1.0000     -18.886291      -513.9221 
  15   1.0000     -18.557819      -504.9839 
  16   1.0000     -18.552571      -504.8411 
  17   1.0000     -18.552519      -504.8397 
  18   1.0000     -10.081430      -274.3297 
  19   1.0000     -10.069668      -274.0096 
  20   1.0000     -10.064682      -273.8739 
  21   1.0000     -10.064652      -273.8731 
  22   1.0000     -10.063612      -273.8448 
  23   1.0000     -10.063124      -273.8315 
  24   1.0000     -10.053068      -273.5579 
  25   1.0000     -10.052699      -273.5478 
  26   1.0000     -10.052360      -273.5386 
  27   1.0000     -10.045596      -273.3546 
  28   1.0000     -10.021455      -272.6977 
  29   1.0000     -10.020519      -272.6722 
  30   1.0000     -10.014550      -272.5098 
  31   1.0000     -10.013746      -272.4879 
  32   1.0000      -7.789169      -211.9541 
  33   1.0000      -7.788216      -211.9281 
  34   1.0000      -7.785787      -211.8620 
  35   1.0000      -7.784669      -211.8316 
  36   1.0000      -7.784346      -211.8228 
  37   1.0000      -7.783755      -211.8067 
  38   1.0000      -7.781719      -211.7513 
  39   1.0000      -7.781199      -211.7372 
  40   1.0000      -7.696283      -209.4265 
  41   1.0000      -7.695832      -209.4142 
  42   1.0000      -7.692839      -209.3328 
  43   1.0000      -7.691028      -209.2835 
  44   1.0000      -5.754139      -156.5781 
  45   1.0000      -5.753222      -156.5531 
  46   1.0000      -5.750797      -156.4871 
  47   1.0000      -5.750713      -156.4849 
  48   1.0000      -5.749717      -156.4577 
  49   1.0000      -5.749689      -156.4570 
  50   1.0000      -5.749403      -156.4492 
  51   1.0000      -5.748762      -156.4318 
  52   1.0000      -5.747498      -156.3974 
  53   1.0000      -5.746604      -156.3730 
  54   1.0000      -5.746087      -156.3590 
  55   1.0000      -5.745932      -156.3548 
  56   1.0000      -5.745146      -156.3334 
  57   1.0000      -5.744275      -156.3097 
  58   1.0000      -5.743981      -156.3017 
  59   1.0000      -5.743019      -156.2755 
  60   1.0000      -5.742273      -156.2552 
  61   1.0000      -5.741765      -156.2414 
  62   1.0000      -5.740539      -156.2080 
  63   1.0000      -5.740509      -156.2072 
  64   1.0000      -5.739599      -156.1824 
  65   1.0000      -5.739091      -156.1686 
  66   1.0000      -5.737479      -156.1247 
  67   1.0000      -5.736941      -156.1101 
  68   1.0000      -5.661732      -154.0636 
  69   1.0000      -5.661219      -154.0496 
  70   1.0000      -5.658011      -153.9623 
  71   1.0000      -5.656239      -153.9141 
  72   1.0000      -5.654909      -153.8779 
  73   1.0000      -5.654488      -153.8664 
  74   1.0000      -5.653553      -153.8410 
  75   1.0000      -5.652986      -153.8256 
  76   1.0000      -5.651479      -153.7846 
  77   1.0000      -5.650341      -153.7536 
  78   1.0000      -5.649678      -153.7356 
  79   1.0000      -5.648488      -153.7032 
  80   1.0000      -2.444052       -66.5060 
  81   1.0000      -1.482934       -40.3527 
  82   1.0000      -1.474076       -40.1117 
  83   1.0000      -1.473386       -40.0929 
  84   1.0000      -0.714152       -19.4331 
  85   1.0000      -0.703829       -19.1522 
  86   1.0000      -0.686457       -18.6794 
  87   1.0000      -0.682923       -18.5833 
  88   1.0000      -0.645116       -17.5545 
  89   1.0000      -0.632228       -17.2038 
  90   1.0000      -0.628809       -17.1108 
  91   1.0000      -0.621542       -16.9130 
  92   1.0000      -0.611801       -16.6480 
  93   1.0000      -0.576480       -15.6868 
  94   1.0000      -0.574315       -15.6279 
  95   1.0000      -0.570839       -15.5333 
  96   1.0000      -0.570543       -15.5253 
  97   1.0000      -0.499114       -13.5816 
  98   1.0000      -0.496608       -13.5134 
  99   1.0000      -0.494970       -13.4688 
 100   1.0000      -0.491688       -13.3795 
 101   1.0000      -0.479428       -13.0459 
 102   1.0000      -0.476715       -12.9721 
 103   1.0000      -0.446863       -12.1597 
 104   1.0000      -0.444633       -12.0991 
 105   1.0000      -0.416579       -11.3357 
 106   1.0000      -0.410781       -11.1779 
 107   1.0000      -0.354722        -9.6525 
 108   1.0000      -0.354507        -9.6466 
 109   1.0000      -0.327210        -8.9038 
 110   1.0000      -0.324594        -8.8326 
 111   1.0000      -0.318954        -8.6792 
 112   1.0000      -0.313476        -8.5301 
 113   1.0000      -0.305297        -8.3075 
 114   1.0000      -0.301291        -8.1985 
 115   1.0000      -0.292878        -7.9696 
 116   1.0000      -0.289991        -7.8911 
 117   1.0000      -0.257778        -7.0145 
 118   1.0000      -0.257667        -7.0115 
 119   1.0000      -0.255524        -6.9532 
 120   1.0000      -0.254555        -6.9268 
 121   1.0000      -0.236029        -6.4227 
 122   1.0000      -0.233558        -6.3554 
 123   1.0000      -0.233049        -6.3416 
 124   1.0000      -0.226567        -6.1652 
 125   1.0000      -0.221612        -6.0304 
 126   1.0000      -0.217930        -5.9302 
 127   1.0000      -0.211326        -5.7505 
 128   1.0000      -0.210482        -5.7275 
 129   1.0000      -0.193215        -5.2576 
 130   1.0000      -0.187760        -5.1092 
 131   1.0000      -0.185515        -5.0481 
 132   1.0000      -0.184981        -5.0336 
 133   1.0000      -0.178578        -4.8594 
 134   1.0000      -0.159209        -4.3323 
 135   1.0000      -0.151814        -4.1311 
 136   1.0000      -0.145985        -3.9725 
 137   1.0000      -0.135143        -3.6774 
 138   1.0000      -0.134630        -3.6635 
 139   1.0000      -0.132271        -3.5993 
 140   1.0000      -0.120581        -3.2812 
 141   1.0000      -0.120262        -3.2725 
 142   1.0000      -0.108695        -2.9577 
 143   1.0000      -0.105447        -2.8694 
 144   1.0000      -0.099942        -2.7195 
 145   1.0000      -0.095946        -2.6108 
 146   1.0000      -0.094643        -2.5754 
 147   1.0000      -0.093739        -2.5508 
 148   1.0000      -0.073228        -1.9926 
 149   1.0000      -0.071930        -1.9573 
 150   1.0000      -0.060803        -1.6545 
 151   1.0000      -0.053487        -1.4555 
 152   1.0000      -0.044320        -1.2060 
 153   1.0000      -0.037159        -1.0112 
 154   1.0000      -0.034801        -0.9470 
 155   1.0000      -0.031854        -0.8668 
 156   1.0000      -0.024116        -0.6562 
 157   1.0000      -0.017901        -0.4871 
 158   1.0000      -0.015189        -0.4133 
 159   1.0000       0.020068         0.5461 
 160   1.0000       0.042308         1.1513 
 161   0.0000       0.135998         3.7007 
 162   0.0000       0.138499         3.7688 
 163   0.0000       0.159855         4.3499 
 164   0.0000       0.162788         4.4297 
 165   0.0000       0.166925         4.5423 
 166   0.0000       0.171026         4.6539 
 167   0.0000       0.171873         4.6769 
 168   0.0000       0.173010         4.7078 
 169   0.0000       0.174290         4.7427 
 170   0.0000       0.175242         4.7686 
 171   0.0000       0.175375         4.7722 
 172   0.0000       0.189528         5.1573 
 173   0.0000       0.191343         5.2067 
 174   0.0000       0.195923         5.3313 
 175   0.0000       0.197385         5.3711 
 176   0.0000       0.198554         5.4029 
 177   0.0000       0.201382         5.4799 
 178   0.0000       0.210398         5.7252 
 179   0.0000       0.211419         5.7530 
 180   0.0000       0.213266         5.8033 
 181   0.0000       0.214650         5.8409 
 182   0.0000       0.216218         5.8836 
 183   0.0000       0.220363         5.9964 
 184   0.0000       0.227614         6.1937 
 185   0.0000       0.229165         6.2359 
 186   0.0000       0.231785         6.3072 
 187   0.0000       0.233705         6.3594 
 188   0.0000       0.235493         6.4081 
 189   0.0000       0.242212         6.5909 
 190   0.0000       0.246969         6.7204 
 191   0.0000       0.247788         6.7426 
 192   0.0000       0.248883         6.7724 
 193   0.0000       0.259837         7.0705 
 194   0.0000       0.261604         7.1186 
 195   0.0000       0.265863         7.2345 
 196   0.0000       0.271594         7.3905 
 197   0.0000       0.273807         7.4507 
 198   0.0000       0.274393         7.4666 
 199   0.0000       0.276406         7.5214 
 200   0.0000       0.286017         7.7829 
 201   0.0000       0.289536         7.8787 
 202   0.0000       0.300137         8.1671 
 203   0.0000       0.311145         8.4667 
 204   0.0000       0.311814         8.4849 
 205   0.0000       0.324677         8.8349 
 206   0.0000       0.330457         8.9922 
 207   0.0000       0.333943         9.0870 
 208   0.0000       0.335685         9.1344 
 209   0.0000       0.342676         9.3247 
 210   0.0000       0.349380         9.5071 
 211   0.0000       0.349917         9.5217 
 212   0.0000       0.352119         9.5817 
 213   0.0000       0.356773         9.7083 
 214   0.0000       0.360356         9.8058 
 215   0.0000       0.368657        10.0317 
 216   0.0000       0.373627        10.1669 
 217   0.0000       0.376783        10.2528 
 218   0.0000       0.382895        10.4191 
 219   0.0000       0.384401        10.4601 
 220   0.0000       0.390020        10.6130 
 221   0.0000       0.391249        10.6464 
 222   0.0000       0.392926        10.6921 
 223   0.0000       0.398590        10.8462 
 224   0.0000       0.400138        10.8883 
 225   0.0000       0.402839        10.9618 
 226   0.0000       0.404519        11.0075 
 227   0.0000       0.412258        11.2181 
 228   0.0000       0.413417        11.2496 
 229   0.0000       0.418399        11.3852 
 230   0.0000       0.421827        11.4785 
 231   0.0000       0.422871        11.5069 
 232   0.0000       0.430366        11.7108 
 233   0.0000       0.432827        11.7778 
 234   0.0000       0.439642        11.9633 
 235   0.0000       0.440142        11.9769 
 236   0.0000       0.445030        12.1099 
 237   0.0000       0.453242        12.3334 
 238   0.0000       0.457288        12.4434 
 239   0.0000       0.464042        12.6272 
 240   0.0000       0.469717        12.7817 
 241   0.0000       0.470889        12.8135 
 242   0.0000       0.472923        12.8689 
 243   0.0000       0.474011        12.8985 
 244   0.0000       0.478755        13.0276 
 245   0.0000       0.479475        13.0472 
 246   0.0000       0.481136        13.0924 
 247   0.0000       0.484683        13.1889 
 248   0.0000       0.487326        13.2608 
 249   0.0000       0.490975        13.3601 
 250   0.0000       0.494369        13.4525 
 251   0.0000       0.501678        13.6514 
 252   0.0000       0.503603        13.7037 
 253   0.0000       0.506453        13.7813 
 254   0.0000       0.510238        13.8843 
 255   0.0000       0.512725        13.9519 
 256   0.0000       0.514152        13.9908 
 257   0.0000       0.516544        14.0559 
 258   0.0000       0.521518        14.1912 
 259   0.0000       0.522545        14.2192 
 260   0.0000       0.526345        14.3226 
 261   0.0000       0.527021        14.3410 
 262   0.0000       0.529088        14.3972 
 263   0.0000       0.530037        14.4230 
 264   0.0000       0.532520        14.4906 
 265   0.0000       0.535925        14.5833 
 266   0.0000       0.537985        14.6393 
 267   0.0000       0.542578        14.7643 
 268   0.0000       0.546108        14.8604 
 269   0.0000       0.551731        15.0134 
 270   0.0000       0.553427        15.0595 
 271   0.0000       0.554824        15.0975 
 272   0.0000       0.559843        15.2341 
 273   0.0000       0.564266        15.3545 
 274   0.0000       0.568550        15.4710 
 275   0.0000       0.572149        15.5690 
 276   0.0000       0.574462        15.6319 
 277   0.0000       0.576782        15.6950 
 278   0.0000       0.579446        15.7675 
 279   0.0000       0.580411        15.7938 
 280   0.0000       0.582534        15.8516 
 281   0.0000       0.587011        15.9734 
 282   0.0000       0.591642        16.0994 
 283   0.0000       0.596435        16.2298 
 284   0.0000       0.602506        16.3950 
 285   0.0000       0.603885        16.4326 
 286   0.0000       0.608994        16.5716 
 287   0.0000       0.612889        16.6776 
 288   0.0000       0.614755        16.7283 
 289   0.0000       0.615983        16.7618 
 290   0.0000       0.621362        16.9081 
 291   0.0000       0.623946        16.9784 
 292   0.0000       0.628263        17.0959 
 293   0.0000       0.631013        17.1707 
 294   0.0000       0.637118        17.3369 
 295   0.0000       0.642595        17.4859 
 296   0.0000       0.643120        17.5002 
 297   0.0000       0.647659        17.6237 
 298   0.0000       0.654856        17.8195 
 299   0.0000       0.659168        17.9369 
 300   0.0000       0.666809        18.1448 
 301   0.0000       0.677006        18.4223 
 302   0.0000       0.687768        18.7151 
 303   0.0000       0.697854        18.9896 
 304   0.0000       0.708038        19.2667 
 305   0.0000       0.710143        19.3240 
 306   0.0000       0.717465        19.5232 
 307   0.0000       0.730582        19.8802 
 308   0.0000       0.736621        20.0445 
 309   0.0000       0.743681        20.2366 
 310   0.0000       0.751566        20.4511 
 311   0.0000       0.754066        20.5192 
 312   0.0000       0.764115        20.7926 
 313   0.0000       0.768177        20.9032 
 314   0.0000       0.770706        20.9720 
 315   0.0000       0.776177        21.1208 
 316   0.0000       0.787315        21.4239 
 317   0.0000       0.790709        21.5163 
 318   0.0000       0.807800        21.9814 
 319   0.0000       0.814291        22.1580 
 320   0.0000       0.816115        22.2076 
 321   0.0000       0.821287        22.3484 
 322   0.0000       0.826178        22.4814 
 323   0.0000       0.830988        22.6123 
 324   0.0000       0.837668        22.7941 
 325   0.0000       0.851964        23.1831 
 326   0.0000       0.853800        23.2331 
 327   0.0000       0.859701        23.3936 
 328   0.0000       0.867031        23.5931 
 329   0.0000       0.868333        23.6285 
 330   0.0000       0.872377        23.7386 
 331   0.0000       0.876276        23.8447 
 332   0.0000       0.877886        23.8885 
 333   0.0000       0.879992        23.9458 
 334   0.0000       0.889570        24.2064 
 335   0.0000       0.894761        24.3477 
 336   0.0000       0.895257        24.3612 
 337   0.0000       0.905594        24.6425 
 338   0.0000       0.917926        24.9780 
 339   0.0000       0.926305        25.2060 
 340   0.0000       0.930803        25.3284 
 341   0.0000       0.935361        25.4525 
 342   0.0000       0.937175        25.5018 
 343   0.0000       0.940384        25.5892 
 344   0.0000       0.943494        25.6738 
 345   0.0000       0.948716        25.8159 
 346   0.0000       0.950145        25.8548 
 347   0.0000       0.951058        25.8796 
 348   0.0000       0.960909        26.1477 
 349   0.0000       0.976324        26.5671 
 350   0.0000       0.979657        26.6578 
 351   0.0000       0.982548        26.7365 
 352   0.0000       0.992148        26.9977 
 353   0.0000       1.006513        27.3886 
 354   0.0000       1.009469        27.4691 
 355   0.0000       1.011536        27.5253 
 356   0.0000       1.017634        27.6912 
 357   0.0000       1.018945        27.7269 
 358   0.0000       1.021322        27.7916 
 359   0.0000       1.025789        27.9131 
 360   0.0000       1.027138        27.9499 
 361   0.0000       1.041016        28.3275 
 362   0.0000       1.042549        28.3692 
 363   0.0000       1.048499        28.5311 
 364   0.0000       1.056152        28.7394 
 365   0.0000       1.063637        28.9430 
 366   0.0000       1.063975        28.9522 
 367   0.0000       1.066915        29.0322 
 368   0.0000       1.070474        29.1291 
 369   0.0000       1.081735        29.4355 
 370   0.0000       1.089108        29.6361 
 371   0.0000       1.096276        29.8312 
 372   0.0000       1.096975        29.8502 
 373   0.0000       1.099733        29.9252 
 374   0.0000       1.106703        30.1149 
 375   0.0000       1.108290        30.1581 
 376   0.0000       1.111991        30.2588 
 377   0.0000       1.119726        30.4693 
 378   0.0000       1.135074        30.8869 
 379   0.0000       1.142832        31.0981 
 380   0.0000       1.145935        31.1825 
 381   0.0000       1.154916        31.4269 
 382   0.0000       1.160475        31.5781 
 383   0.0000       1.164793        31.6956 
 384   0.0000       1.168542        31.7977 
 385   0.0000       1.194817        32.5126 
 386   0.0000       1.203729        32.7551 
 387   0.0000       1.228562        33.4309 
 388   0.0000       1.232035        33.5254 
 389   0.0000       1.234948        33.6046 
 390   0.0000       1.239619        33.7318 
 391   0.0000       1.250035        34.0152 
 392   0.0000       1.269264        34.5384 
 393   0.0000       1.278986        34.8030 
 394   0.0000       1.299183        35.3526 
 395   0.0000       1.300749        35.3952 
 396   0.0000       1.306806        35.5600 
 397   0.0000       1.311111        35.6771 
 398   0.0000       1.320288        35.9269 
 399   0.0000       1.328568        36.1522 
 400   0.0000       1.335725        36.3469 
 401   0.0000       1.345142        36.6032 
 402   0.0000       1.360541        37.0222 
 403   0.0000       1.394793        37.9542 
 404   0.0000       1.401566        38.1386 
 405   0.0000       1.413544        38.4645 
 406   0.0000       1.425949        38.8021 
 407   0.0000       1.426659        38.8214 
 408   0.0000       1.427726        38.8504 
 409   0.0000       1.432960        38.9928 
 410   0.0000       1.440848        39.2075 
 411   0.0000       1.443586        39.2820 
 412   0.0000       1.447606        39.3914 
 413   0.0000       1.485768        40.4298 
 414   0.0000       1.486858        40.4595 
 415   0.0000       1.498295        40.7707 
 416   0.0000       1.499249        40.7966 
[...]
Total number of batches                      ...      303
Average number of points per batch           ...       58
Average number of grid points per atom       ...      445

Memory available               ... 812.6 MB
Memory needed per perturbation ...  48.1 MB
Perturbations treated per batch... 3
Number of batches              ... 1
     CP-SCF ITERATION   0:   4.1896e-02 (   6.2 sec   0/  3 done)
     CP-SCF ITERATION   1:   1.4181e-03 (   6.3 sec   1/  3 done)
     CP-SCF ITERATION   2:   1.3906e-04 (   5.1 sec   3/  3 done)
                    *** THE CP-SCF HAS CONVERGED ***

Forming final perturbed densities           ... done
Transforming perturbed density to AO basis  ... done

 Raw HFC matrix (all values in MHz): 
 -----------------------------------
                 0.0375              -0.0347              -0.1169
                -0.0349              -0.0599               0.0381
                -0.1167               0.0379               0.0581

 A(FC)           0.0117               0.0117               0.0117
 A(SD)          -0.0816              -0.0840               0.1656
 A(ORB+DIA)      0.0005               0.0012              -0.0010    A(PC) =   0.0002
 A(ORB)          0.0005               0.0012              -0.0010    A(PC) =   0.0002
 A(DIA)         -0.0000              -0.0000               0.0000    A(PC) =  -0.0000
             ----------           ----------           ----------
 A(Tot)         -0.0695              -0.0711               0.1763    A(iso)=    0.0119
 Orientation: 
  X          -0.7269019            0.1909686            0.6596549
  Y           0.0627347            0.9750072           -0.2131323
  Z          -0.6838698           -0.1135430           -0.7207150

Notes:  (1) The A matrix conforms to the "SAI" spin Hamiltonian convention.
        (2) Tensor is right-handed.

 Raw EFG matrix (all values in a.u.**-3):
 -----------------------------------
             0.2722      -0.0373      -0.0670
            -0.0373      -0.1389       0.0115
            -0.0670       0.0115      -0.1333

 V(El)       0.5345       0.8115      -1.3460
 V(Nuc)     -0.6722      -0.9602       1.6325
         ----------   ----------   ----------
 V(Tot)     -0.1378      -0.1487       0.2865 
 Orientation: 
  X      -0.1718033    0.0635213   -0.9830812
  Y      -0.7570835   -0.6470194    0.0905011
  Z      -0.6303239    0.7598230    0.1592510

Note: Tensor is right-handed


 Quadrupole tensor eigenvalues (in MHz;Q= 0.0029 I=  1.0)
  e**2qQ            =     0.192375 MHz 
  e**2qQ/(4I*(2I-1))=     0.048094 MHz 
  eta               =     0.038094
  NOTE: the diagonal representation of the SH term I*Q*I = e**2qQ/(4I(2I-1))*[-(1-eta),-(1+eta),2]

 RHO(0)=      0.442023702 a.u.**-3

 -----------------------------------------------------------
 Nucleus  39H : A:ISTP=    1 I=  0.5 P=533.5514 MHz/au**3
                Q:ISTP=    2 I=  1.0 Q=  0.0029 barn     
 -----------------------------------------------------------
 Solving for nuclear perturbation:
Forming RHS of the CP-SCF equations         ... 
Calc. nucleus orbit integrals (SHARK)       ... done

------------------------------------------------------------------------------
                           ORCA CP-SCF CALCULATION
------------------------------------------------------------------------------

Input orbitals are from        ... input_21.gbw
Input Perturbation             ... input_21.pin.tmp
Wavefunction output            ... input_21.pout.tmp
Perturbation mode              ... Imaginary perturbation
Solver                         ... POPLE
Max. number of iterations      ... 64
Convergence tolerance          ... 1.000e-03
Integral handling              ... Direct
DFT GridXC                     ... 1
COSX GridX                     ... 1
COSX IntAccX                   ... 3.067
COSX Algorithm                 ... Auto
Number of perturbations        ... 3
Number of operators            ... 2
Orbital ranges used for CP-SCF:
 Operator 0:  Orbitals   0...160  to 161...680
 Operator 1:  Orbitals   0...159  to 160...680
Variables per perturbation     ... 167080
DFT calculation                         ... on
XC functional terms                     ... off
Hybrid DFT                              ... on
   Exchange mixing (SCF)                ...  0.200
   Exchange mixing (CP-SCF)             ...  0.200
   GGA exch. scaling(SCF)               ...  0.720
   GGA exch. scaling (CP-SCF)           ...  0.720
   GGA corr. scaling (SCF)              ...  0.810
   GGA corr. scaling (CP-SCF)           ...  0.810

CP-SCF GRID
-----------

General Integration Accuracy     IntAcc      ... 3.467
Radial Grid Type                 RadialGrid  ... OptM3 with GC (2021)
Angular Grid (max. ang.)         AngularGrid ... 1 (Lebedev-50)
Angular grid pruning method      GridPruning ... 4 (adaptive)
Weight generation scheme         WeightScheme... Becke
Basis function cutoff            BFCut       ... 1.0000e-10
Integration weight cutoff        WCut        ... 1.0000e-14
Angular grids for H and He will be reduced by one unit
Partially contracted basis set               ... off
Rotationally invariant grid construction     ... off

Total number of grid points                  ...    39357
Total number of batches                      ...      634
Average number of points per batch           ...       62
Average number of grid points per atom       ...      984

CP-SCF GRIDX
------------

General Integration Accuracy     IntAcc      ... 3.067
Radial Grid Type                 RadialGrid  ... OptM3 with GC (2021)
Angular Grid (max. ang.)         AngularGrid ... 1 (Lebedev-50)
Angular grid pruning method      GridPruning ... 4 (adaptive)
Weight generation scheme         WeightScheme... Becke
Basis function cutoff            BFCut       ... 1.0000e-10
Integration weight cutoff        WCut        ... 1.0000e-14
Angular grids for H and He will be reduced by one unit
Partially contracted basis set               ... on
Rotationally invariant grid construction     ... off

Total number of grid points                  ...    17791
Total number of batches                      ...      303
Average number of points per batch           ...       58
Average number of grid points per atom       ...      445

Memory available               ... 809.8 MB
Memory needed per perturbation ...  48.1 MB
Perturbations treated per batch... 3
Number of batches              ... 1
     CP-SCF ITERATION   0:   4.5591e-02 (   6.2 sec   0/  3 done)
     CP-SCF ITERATION   1:   1.7033e-03 (   6.3 sec   0/  3 done)
     CP-SCF ITERATION   2:   1.8438e-04 (   6.4 sec   3/  3 done)
                    *** THE CP-SCF HAS CONVERGED ***

Forming final perturbed densities           ... done
Transforming perturbed density to AO basis  ... done

 Raw HFC matrix (all values in MHz): 
 -----------------------------------
                -0.0070              -0.0712              -0.1659
                -0.0712              -0.0925               0.0854
                -0.1658               0.0853               0.0701

 A(FC)          -0.0101              -0.0101              -0.0101
 A(SD)          -0.1207              -0.1302               0.2509
 A(ORB+DIA)      0.0018               0.0009              -0.0017    A(PC) =   0.0003
 A(ORB)          0.0018               0.0009              -0.0018    A(PC) =   0.0003
 A(DIA)         -0.0000              -0.0000               0.0000    A(PC) =  -0.0000
             ----------           ----------           ----------
 A(Tot)         -0.1291              -0.1394               0.2390    A(iso)=   -0.0098
 Orientation: 
  X           0.0130746            0.8062063           -0.5914900
  Y          -0.9153180            0.2477768            0.3174894
  Z           0.4025195            0.5372504            0.7411748

Notes:  (1) The A matrix conforms to the "SAI" spin Hamiltonian convention.
        (2) Tensor is right-handed.

 Raw EFG matrix (all values in a.u.**-3):
 -----------------------------------
            -0.1112       0.0806      -0.0768
             0.0806       0.0581      -0.1960
            -0.0768      -0.1960       0.0531

 V(El)       0.6262       0.4718      -1.0980
 V(Nuc)     -0.7655      -0.6156       1.3811
         ----------   ----------   ----------
 V(Tot)     -0.1393      -0.1438       0.2831 
 Orientation: 
  X       0.4821339    0.8329074    0.2716840
  Y       0.5102689   -0.5190468    0.6857231
  Z       0.7121605   -0.1919784   -0.6752568

Note: Tensor is right-handed


 Quadrupole tensor eigenvalues (in MHz;Q= 0.0029 I=  1.0)
  e**2qQ            =     0.190088 MHz 
  e**2qQ/(4I*(2I-1))=     0.047522 MHz 
  eta               =     0.015697
  NOTE: the diagonal representation of the SH term I*Q*I = e**2qQ/(4I(2I-1))*[-(1-eta),-(1+eta),2]

 RHO(0)=      0.441201799 a.u.**-3

 -----------------------------------------------------------
 Nucleus   0V : A:ISTP=   51 I=  3.5 P=140.5173 MHz/au**3
                Q:ISTP=   51 I=  3.5 Q= -0.0430 barn     
 -----------------------------------------------------------
 Solving for nuclear perturbation:
Forming RHS of the CP-SCF equations         ... 
Calc. nucleus orbit integrals (SHARK)       ... done

------------------------------------------------------------------------------
                           ORCA CP-SCF CALCULATION
------------------------------------------------------------------------------

Input orbitals are from        ... input_21.gbw
Input Perturbation             ... input_21.pin.tmp
Wavefunction output            ... input_21.pout.tmp
Perturbation mode              ... Imaginary perturbation
Solver                         ... POPLE
Max. number of iterations      ... 64
Convergence tolerance          ... 1.000e-03
Integral handling              ... Direct
DFT GridXC                     ... 1
COSX GridX                     ... 1
COSX IntAccX                   ... 3.067
COSX Algorithm                 ... Auto
Number of perturbations        ... 3
Number of operators            ... 2
Orbital ranges used for CP-SCF:
 Operator 0:  Orbitals   0...160  to 161...680
 Operator 1:  Orbitals   0...159  to 160...680
Variables per perturbation     ... 167080
DFT calculation                         ... on
XC functional terms                     ... off
Hybrid DFT                              ... on
   Exchange mixing (SCF)                ...  0.200
   Exchange mixing (CP-SCF)             ...  0.200
   GGA exch. scaling(SCF)               ...  0.720
   GGA exch. scaling (CP-SCF)           ...  0.720
   GGA corr. scaling (SCF)              ...  0.810
   GGA corr. scaling (CP-SCF)           ...  0.810

CP-SCF GRID
-----------

General Integration Accuracy     IntAcc      ... 3.467
Radial Grid Type                 RadialGrid  ... OptM3 with GC (2021)
Angular Grid (max. ang.)         AngularGrid ... 1 (Lebedev-50)
Angular grid pruning method      GridPruning ... 4 (adaptive)
Weight generation scheme         WeightScheme... Becke
Basis function cutoff            BFCut       ... 1.0000e-10
Integration weight cutoff        WCut        ... 1.0000e-14
Angular grids for H and He will be reduced by one unit
Partially contracted basis set               ... off
Rotationally invariant grid construction     ... off

Total number of grid points                  ...    39357
Total number of batches                      ...      634
Average number of points per batch           ...       62
Average number of grid points per atom       ...      984

CP-SCF GRIDX
------------

General Integration Accuracy     IntAcc      ... 3.067
Radial Grid Type                 RadialGrid  ... OptM3 with GC (2021)
Angular Grid (max. ang.)         AngularGrid ... 1 (Lebedev-50)
Angular grid pruning method      GridPruning ... 4 (adaptive)
Weight generation scheme         WeightScheme... Becke
Basis function cutoff            BFCut       ... 1.0000e-10
Integration weight cutoff        WCut        ... 1.0000e-14
Angular grids for H and He will be reduced by one unit
Partially contracted basis set               ... on
Rotationally invariant grid construction     ... off

Total number of grid points                  ...    17791
Total number of batches                      ...      303
Average number of points per batch           ...       58
Average number of grid points per atom       ...      445

Memory available               ... 807.0 MB
Memory needed per perturbation ...  48.1 MB
Perturbations treated per batch... 3
Number of batches              ... 1
     CP-SCF ITERATION   0:   1.3689e+01 (   6.7 sec   0/  3 done)
     CP-SCF ITERATION   1:   2.0594e+00 (   6.3 sec   0/  3 done)
     CP-SCF ITERATION   2:   3.8994e-01 (   6.4 sec   0/  3 done)
     CP-SCF ITERATION   3:   6.4297e-02 (   6.4 sec   0/  3 done)
     CP-SCF ITERATION   4:   1.5867e-02 (   6.4 sec   0/  3 done)
     CP-SCF ITERATION   5:   3.2442e-03 (   6.5 sec   0/  3 done)
     CP-SCF ITERATION   6:   4.9306e-04 (   6.4 sec   3/  3 done)
                    *** THE CP-SCF HAS CONVERGED ***

Forming final perturbed densities           ... done
Transforming perturbed density to AO basis  ... done

 Raw HFC matrix (all values in MHz): 
 -----------------------------------
               -84.6111             -35.7423              -0.6045
               -34.9621            -374.6786             -20.5013
                -0.3992             -18.6511             -84.0640

 A(FC)        -169.0068            -169.0068            -169.0068
 A(SD)          97.0148              93.1531            -190.1679
 A(ORB+DIA)     -7.3886              -7.9141             -21.0306    A(PC) = -12.1111
 A(ORB)         -7.3882              -7.9146             -21.0304    A(PC) = -12.1110
 A(DIA)         -0.0004               0.0005              -0.0002    A(PC) =  -0.0000
             ----------           ----------           ----------
 A(Tot)        -79.3807             -83.7678            -380.2053    A(iso)= -181.1179
 Orientation: 
  X           0.8638203            0.4893408            0.1198334
  Y          -0.1381567            0.0013456            0.9904095
  Z           0.4844865           -0.8720916            0.0687680

Notes:  (1) The A matrix conforms to the "SAI" spin Hamiltonian convention.
        (2) Tensor is right-handed.

 Raw EFG matrix (all values in a.u.**-3):
 -----------------------------------
            -0.0597       0.0868       0.0187
             0.0868       0.2543      -0.2573
             0.0187      -0.2573      -0.1946

 V(El)       0.1322      -0.7006       0.5684
 V(Nuc)     -0.1925       0.3781      -0.1856
         ----------   ----------   ----------
 V(Tot)     -0.0603      -0.3226       0.3828 
 Orientation: 
  X      -0.9659879    0.2027827   -0.1604571
  Y       0.0610480   -0.4241363   -0.9035383
  Z      -0.2512776   -0.8826027    0.3973311

Note: Tensor is right-handed


 Quadrupole tensor eigenvalues (in MHz;Q=-0.0430 I=  3.5)
  e**2qQ            =    -3.868049 MHz 
  e**2qQ/(4I*(2I-1))=    -0.046048 MHz 
  eta               =     0.685027
  NOTE: the diagonal representation of the SH term I*Q*I = e**2qQ/(4I(2I-1))*[-(1-eta),-(1+eta),2]

 RHO(0)=   8115.157355153 a.u.**-3


--------------------------------------------------------------------------------
----------------------------------------------------------------------------
                           ORCA EULER ANGLE PROGRAM
----------------------------------------------------------------------------

Only g-tensor available        -->  using g-tensor as reference tensor

Reference tensor               ...  g

g-tensor ordering              ...  |g_min> --> |gx>
                                    |g_mid> --> |gy>
                                    |g_max> --> |gz>

A- and EFG-tensor ordering     ...  the axes |Ax>, |Qx>, |Ay>, etc. are assigned
                                    such that the Euler rotation is minimal. You
                                    can find the respective eigenvalues as Ax,
                                    EFGx, Ay, etc. in the tables below.
                                    The relation of |Ax>, |Ay>,  etc. to Amin, Amid, etc.
                                    (as printed in the ORCA EPR/NMR CALCULATION Output)
                                    is obtained in the detailed printout.

Euler rotation around          ...  z - y - z
   First rotation              -->  by alpha around z
   Second rotation             -->  by beta around y'
   Third rotation              -->  by gamma around z''
   Positive / Negative angle   -->  clockwise / counterclockwise rotation

Plot EFG-tensors                    (-)
Plot HFC-tensors                    (-)
Detailed Printout                   (-)

-------------------------------------------------------------------------
          Euler rotation of hyperfine tensor to g-tensor
-------------------------------------------------------------------------

-------------------------------------------------------------------
 Atom  |   Alpha    Beta    Gamma   |   Ax       Ay       Az 
       |          [degrees]         |           [MHz]         
-------------------------------------------------------------------
 25H        5.4     14.3     26.4      -0.13     0.25    -0.13
 26H     -176.2     36.6   -158.0      -0.08     0.17    -0.08
 27H       98.5     10.4    -69.5      -0.07     0.13    -0.07
 28H       75.4     10.8    -56.0      -0.07     0.14    -0.07
 29H      140.7     38.1   -121.3      -0.08     0.17    -0.08
 30H      130.6     25.1   -101.2      -0.13     0.26    -0.13
 34H      113.0      3.5   -103.1      -0.14     0.25    -0.14
 35H      -39.9      2.4     45.0      -0.07     0.18    -0.07
 36H      160.9     36.3   -165.8      -0.07     0.14    -0.07
 37H       26.8     28.4    -14.9      -0.06     0.15    -0.06
 38H       88.4     25.4    -86.9      -0.07     0.18    -0.07
 39H       53.0     28.0    -41.1      -0.13     0.24    -0.14
  0V       82.6     10.9    -92.3    -380.21   -83.77   -79.38
-------------------------------------------------------------------


-------------------------------------------------------------------------------
    Euler rotation of Electric Field Gradient (EFG) tensor to g-tensor
-------------------------------------------------------------------------------

-------------------------------------------------------------------
 Atom  |   Alpha    Beta    Gamma  |   EFGx     EFGy     EFGz
       |          [degrees]        |         [a.u.**-3]       
-------------------------------------------------------------------
 25H      164.7     24.9    160.5     -0.14     0.28    -0.14
 26H       35.9     47.9    -65.5     -0.14    -0.15     0.29
 27H       51.5     10.5    -70.2      0.27    -0.14    -0.13
 28H       32.7     11.8    -68.1     -0.14     0.27    -0.13
 29H     -150.0     26.4    122.7     -0.14    -0.15     0.29
 30H       12.0     42.0    -40.3     -0.14     0.28    -0.14
 34H      -98.6     32.1    139.2      0.28    -0.14    -0.14
 35H     -122.0     51.6    147.6     -0.15     0.29    -0.14
 36H      100.1     11.8    -55.3      0.28    -0.14    -0.13
 37H       32.5     13.6    -61.0      0.27    -0.14    -0.13
 38H      -30.6     27.6     75.6     -0.15    -0.14     0.29
 39H      -83.8     36.5    123.7      0.28    -0.14    -0.14
  0V       -7.6      6.8     25.2      0.38    -0.32    -0.06
-------------------------------------------------------------------


Maximum memory used throughout the entire EPRNMR-calculation: 318.5 MB

Timings for individual modules:

Sum of individual times         ...     4003.072 sec (=  66.718 min)
GTO integral calculation        ...        1.453 sec (=   0.024 min)   0.0 %
Spin-Orbit-Coupling Matrices    ...       13.213 sec (=   0.220 min)   0.3 %
SCF iterations                  ...      266.672 sec (=   4.445 min)   6.7 %
EPR/NMR calculation             ...     3721.734 sec (=  62.029 min)  93.0 %
                             ****ORCA TERMINATED NORMALLY****
TOTAL RUN TIME: 0 days 1 hours 6 minutes 44 seconds 220 msec
