
                                 *****************
                                 * O   R   C   A *
                                 *****************

                                            #,                                       
                                            ###                                      
                                            ####                                     
                                            #####                                    
                                            ######                                   
                                           ########,                                 
                                     ,,################,,,,,                         
                               ,,#################################,,                 
                          ,,##########################################,,             
                       ,#########################################, ''#####,          
                    ,#############################################,,   '####,        
                  ,##################################################,,,,####,       
                ,###########''''           ''''###############################       
              ,#####''   ,,,,##########,,,,          '''####'''          '####       
            ,##' ,,,,###########################,,,                        '##       
           ' ,,###''''                  '''############,,,                           
         ,,##''                                '''############,,,,        ,,,,,,###''
      ,#''                                            '''#######################'''  
     '                                                          ''''####''''         
             ,#######,   #######,   ,#######,      ##                                
            ,#'     '#,  ##    ##  ,#'     '#,    #''#        ######   ,####,        
            ##       ##  ##   ,#'  ##            #'  '#       #        #'  '#        
            ##       ##  #######   ##           ,######,      #####,   #    #        
            '#,     ,#'  ##    ##  '#,     ,#' ,#      #,         ##   #,  ,#        
             '#######'   ##     ##  '#######'  #'      '#     #####' # '####'        



                  #######################################################
                  #                        -***-                        #
                  #          Department of theory and spectroscopy      #
                  #    Directorship and core code : Frank Neese         #
                  #        Max Planck Institute fuer Kohlenforschung    #
                  #                Kaiser Wilhelm Platz 1               #
                  #                 D-45470 Muelheim/Ruhr               #
                  #                      Germany                        #
                  #                                                     #
                  #                  All rights reserved                #
                  #                        -***-                        #
                  #######################################################


                         Program Version 5.0.4 -  RELEASE  -


 With contributions from (in alphabetic order):
   Daniel Aravena         : Magnetic Suceptibility
   Michael Atanasov       : Ab Initio Ligand Field Theory (pilot matlab implementation)
   Alexander A. Auer      : GIAO ZORA, VPT2 properties, NMR spectrum
   Ute Becker             : Parallelization
   Giovanni Bistoni       : ED, misc. LED, open-shell LED, HFLD
   Martin Brehm           : Molecular dynamics
   Dmytro Bykov           : SCF Hessian
   Vijay G. Chilkuri      : MRCI spin determinant printing, contributions to CSF-ICE
   Dipayan Datta          : RHF DLPNO-CCSD density
   Achintya Kumar Dutta   : EOM-CC, STEOM-CC
   Dmitry Ganyushin       : Spin-Orbit,Spin-Spin,Magnetic field MRCI
   Miquel Garcia          : C-PCM and meta-GGA Hessian, CC/C-PCM, Gaussian charge scheme
   Yang Guo               : DLPNO-NEVPT2, F12-NEVPT2, CIM, IAO-localization
   Andreas Hansen         : Spin unrestricted coupled pair/coupled cluster methods
   Benjamin Helmich-Paris : MC-RPA, TRAH-SCF, COSX integrals
   Lee Huntington         : MR-EOM, pCC
   Robert Izsak           : Overlap fitted RIJCOSX, COSX-SCS-MP3, EOM
   Marcus Kettner         : VPT2
   Christian Kollmar      : KDIIS, OOCD, Brueckner-CCSD(T), CCSD density, CASPT2, CASPT2-K
   Simone Kossmann        : Meta GGA functionals, TD-DFT gradient, OOMP2, MP2 Hessian
   Martin Krupicka        : Initial AUTO-CI
   Lucas Lang             : DCDCAS
   Marvin Lechner         : AUTO-CI (C++ implementation), FIC-MRCC
   Dagmar Lenk            : GEPOL surface, SMD
   Dimitrios Liakos       : Extrapolation schemes; Compound Job, initial MDCI parallelization
   Dimitrios Manganas     : Further ROCIS development; embedding schemes
   Dimitrios Pantazis     : SARC Basis sets
   Anastasios Papadopoulos: AUTO-CI, single reference methods and gradients
   Taras Petrenko         : DFT Hessian,TD-DFT gradient, ASA, ECA, R-Raman, ABS, FL, XAS/XES, NRVS
   Peter Pinski           : DLPNO-MP2, DLPNO-MP2 Gradient
   Christoph Reimann      : Effective Core Potentials
   Marius Retegan         : Local ZFS, SOC
   Christoph Riplinger    : Optimizer, TS searches, QM/MM, DLPNO-CCSD(T), (RO)-DLPNO pert. Triples
   Tobias Risthaus        : Range-separated hybrids, TD-DFT gradient, RPA, STAB
   Michael Roemelt        : Original ROCIS implementation
   Masaaki Saitow         : Open-shell DLPNO-CCSD energy and density
   Barbara Sandhoefer     : DKH picture change effects
   Avijit Sen             : IP-ROCIS
   Kantharuban Sivalingam : CASSCF convergence, NEVPT2, FIC-MRCI
   Bernardo de Souza      : ESD, SOC TD-DFT
   Georgi Stoychev        : AutoAux, RI-MP2 NMR, DLPNO-MP2 response
   Willem Van den Heuvel  : Paramagnetic NMR
   Boris Wezisla          : Elementary symmetry handling
   Frank Wennmohs         : Technical directorship


 We gratefully acknowledge several colleagues who have allowed us to
 interface, adapt or use parts of their codes:
   Stefan Grimme, W. Hujo, H. Kruse, P. Pracht,  : VdW corrections, initial TS optimization,
                  C. Bannwarth, S. Ehlert          DFT functionals, gCP, sTDA/sTD-DF
   Ed Valeev, F. Pavosevic, A. Kumar             : LibInt (2-el integral package), F12 methods
   Garnet Chan, S. Sharma, J. Yang, R. Olivares  : DMRG
   Ulf Ekstrom                                   : XCFun DFT Library
   Mihaly Kallay                                 : mrcc  (arbitrary order and MRCC methods)
   Jiri Pittner, Ondrej Demel                    : Mk-CCSD
   Frank Weinhold                                : gennbo (NPA and NBO analysis)
   Christopher J. Cramer and Donald G. Truhlar   : smd solvation model
   Lars Goerigk                                  : TD-DFT with DH, B97 family of functionals
   V. Asgeirsson, H. Jonsson                     : NEB implementation
   FAccTs GmbH                                   : IRC, NEB, NEB-TS, DLPNO-Multilevel, CI-OPT
                                                   MM, QMMM, 2- and 3-layer-ONIOM, Crystal-QMMM,
                                                   LR-CPCM, SF, NACMEs, symmetry and pop. for TD-DFT,
                                                   nearIR, NL-DFT gradient (VV10), updates on ESD,
                                                   ML-optimized integration grids
   S Lehtola, MJT Oliveira, MAL Marques          : LibXC Library
   Liviu Ungur et al                             : ANISO software


 Your calculation uses the libint2 library for the computation of 2-el integrals
 For citations please refer to: http://libint.valeyev.net

 Your ORCA version has been built with support for libXC version: 5.1.0
 For citations please refer to: https://tddft.org/programs/libxc/

 This ORCA versions uses:
   CBLAS   interface :  Fast vector & matrix operations
   LAPACKE interface :  Fast linear algebra routines
   SCALAPACK package :  Parallel linear algebra routines
   Shared memory     :  Shared parallel matrices
   BLAS/LAPACK       :  OpenBLAS 0.3.15  USE64BITINT DYNAMIC_ARCH NO_AFFINITY Prescott SINGLE_THREADED
        Core in use  :  Prescott
   Copyright (c) 2011-2014, The OpenBLAS Project


================================================================================

----- Orbital basis set information -----
Your calculation utilizes the basis: TZVP 

The basis set includes element-specific modifications.

Your calculation utilizes the basis: CP(PPP) 

----- AuxJ basis set information -----
Your calculation utilizes the auxiliary basis: def2/J
   F. Weigend, Phys. Chem. Chem. Phys. 8, 1057 (2006).

================================================================================
                                        WARNINGS
                       Please study these warnings very carefully!
================================================================================


WARNING: your system is open-shell and RHF/RKS was chosen
  ===> : WILL SWITCH to UHF/UKS


INFO   : the flag for use of the SHARK integral package has been found!

================================================================================
                                       INPUT FILE
================================================================================
NAME = input_86.inp
|  1> ! nofrozencore ReducedPop printbasis
|  2> ! B3LYP TZVP
|  3> 
|  4> %basis
|  5> newgto V "CP(PPP)" end
|  6> end
|  7> 
|  8> %pal
|  9> nprocs 6
| 10> end
| 11> 
| 12> % sym SymThresh 1e-2 end
| 13> * xyz -2 2 
| 14> V 0.7081894832525018 0.8532538604375891 0.09583918833601165
| 15> S -0.07701933552656622 1.14599331576949 -2.2316378972881545
| 16> S -1.5363083781504276 1.6596883646374463 0.7578729376227147
| 17> S 2.0839451494241317 -1.0058807798462917 -0.7886721273599386
| 18> S 0.5912584115125612 -0.5545277291109322 2.117933898617404
| 19> O 1.6972653923748262 2.055959084260327 0.41309568322988327
| 20> C -1.5225192716897347 1.1893552520449417 2.451250431558447
| 21> C -0.6687318762202596 0.29616065358715526 2.9968964456997447
| 22> C 1.004803856341642 0.06048461273431518 -3.0946010578210794
| 23> C 1.8630829152253905 -0.7984239063915786 -2.5190066163785025
| 24> S -2.768746098464951 1.8704644088778197 3.5504245638660543
| 25> S -0.9146618601234129 -0.08987313768245271 4.731388876666628
| 26> S 2.8189593411025164 -1.8403300673079928 -3.627088515446794
| 27> S 0.9435103381376175 0.04592811736813318 -4.890497220205985
| 28> C -2.304655919179242 0.9635241314296181 4.990182877379033
| 29> C 2.1096251690546253 -1.2612379444041584 -5.140470127520187
| 30> C -2.956159159921036 1.0733903328243009 6.204176134956702
| 31> C 2.4336072251322616 -1.76096551544908 -6.365352471222329
| 32> S -4.318910901996869 2.1882783393121885 6.4410755488600415
| 33> S -2.450103553102325 0.130639042611988 7.622380328033414
| 34> S 1.6874940904256253 -1.1452180269169747 -7.864287740595775
| 35> S 3.6014416369004723 -3.0961498619562895 -6.560706529562856
| 36> C 2.4358876260239666 -4.364284471636786 -7.298390046520626
| 37> C 0.8250078789796392 -2.7189593463527864 -8.402719499815065
| 38> C 1.779895385505541 -3.878988903298328 -8.571108596921958
| 39> H 1.7777896703308544 -4.569466789238263 -6.445006684173297
| 40> H 3.143944237373494 -5.194988504177909 -7.421353967709489
| 41> H 1.1733010272538127 -4.7201187480586615 -8.938891296596143
| 42> H 2.5268347390485077 -3.6658149444585018 -9.342208620904822
| 43> H 0.3650268507088257 -2.351524719890455 -9.329924445466464
| 44> H 0.055222770495594556 -2.8163345222132654 -7.627385963381004
| 45> C -1.9590583055975905 1.4784305861763678 8.69441965475812
| 46> C -3.578508301449861 3.268350632149433 7.662889764170424
| 47> C -3.0608851599788145 2.5787233183382323 8.993586794466273
| 48> H -2.6063795201736926 3.8889149623669477 7.523406729412789
| 49> H -4.165863175671032 4.102508939478398 8.194047635609516
| 50> H -3.9302487746676023 2.002033767622248 9.351850051851457
| 51> H -2.767483328035178 3.2923535250780183 9.77873017042104
| 52> H -1.6586218606983445 1.319679702134553 9.79246095026856
| 53> H -1.134599654115481 2.262435659324267 8.463817960868724
| 54> * 
| 55> 
| 56> % eprnmr
| 57> gtensor true
| 58> Nuclei = all H {aiso,adip,aorb,fgrad,rho}
| 59> Nuclei = all V {aiso,adip,aorb,fgrad,rho}
| 60> end
| 61> 
| 62>                          ****END OF INPUT****
================================================================================

------------------------------------------------------------------------------
                            SYMMETRY HANDLING SETUP
------------------------------------------------------------------------------

------------------
SYMMETRY DETECTION
------------------
The point group will now be determined using a tolerance of 1.0000e-02.
Splitting atom subsets according to nuclear charge, mass and basis set.
Splitting atom subsets according to distance from the molecule's center.
Identifying relative distance patterns of the atoms.
Splitting atom subsets according to atoms' relative distance patterns.
Bring atoms of each subset into input order.
The molecule is neither linear nor planar.
There is at least one atom subset not centered around the molecule's center.
The molecule does not have a center of inversion.
Analyzing the first atom subset for its symmetry.
The subset is an off-center atom pair.
Testing point group C2v.
Test failed.
Testing point group C2.
Test failed.
Testing point group Cs.
Test failed.
Testing point group Cs.
Test failed.
No testing is needed for point group C1.
This point group has been found:    C1
Largest non-degenerate subgroup:    C1


Mass-centered symmetry-perfected Cartesians (point group C1):

Atom          Symmetry-perfected Cartesians (x, y, z; au)
  0       1.332736400956    1.608925796355    0.184196570031
  1      -0.151093224476    2.162123195526   -4.214097704776
  2      -2.908749865268    3.132866154238    1.435259047596
  3       3.932537837211   -1.904329519867   -1.487287578989
  4       1.111768698822   -1.051395864268    4.005401789313
  5       3.201818994856    3.881709289217    0.783724459588
  6      -2.882692230425    2.244065379723    4.635278752480
  7      -1.269267876394    0.556172204340    5.666400285273
  8       1.893256333479    0.110809030801   -5.844861741846
  9       3.515168701249   -1.512292844438   -4.757145883313
 10      -5.237719633776    3.531175153443    6.712416836032
 11      -1.734008194091   -0.173325939599    8.944115961160
 12       5.321513364028   -3.481210145816   -6.851117206507
 13       1.777428370289    0.083301241090   -9.238613653714
 14      -4.360716293484    1.817306409244    9.433165747608
 15       3.981066041426   -2.386884627216   -9.710993989438
 16      -5.591878993848    2.024923441254   11.727280532857
 17       4.593303399717   -3.331232878061  -12.025686165311
 18      -8.167106574895    4.131756443509   12.174955546420
 19      -4.635572488425    0.243381690352   14.407298059750
 20       3.183353910200   -2.167638757086  -14.858263316902
 21       6.800190607728   -5.854365631258  -12.394851834724
 22       4.597612732878   -8.250792744502  -13.788871655282
 23       1.553491176284   -5.141578856455  -15.875751883632
 24       3.357967052321   -7.333717026336  -16.193961161102
 25       3.353987827325   -8.638531132292  -12.176210813201
 26       5.935645815641   -9.820595864348  -14.021239790682
 27       2.211669840844   -8.923222076001  -16.888969740281
 28       4.769477869166   -6.930876625245  -17.651129028290
 29       0.684253006053   -4.447228040322  -17.627915300930
 30       0.098808139279   -5.325591271074  -14.410583837327
 31      -3.707631451278    2.790338593303   16.433158792053
 32      -6.767948431018    6.172797281808   14.483849799889
 33      -5.789782453058    4.869590524233   16.998502754370
 34      -4.930891267504    7.345493914399   14.220265063869
 35      -7.877888286720    7.749128034995   15.487592710785
 36      -7.432641595616    3.779805209086   17.675522194675
 37      -5.235333343494    6.218156175865   18.482208710787
 38      -3.139888849769    2.490342898946   18.508156124304
 39      -2.149630391235    4.271893469158   15.997384744584


------------------
SYMMETRY REDUCTION
------------------
ORCA supports only abelian point groups.
It is now checked, if the determined point group is supported:
Point Group ( C1    ) is          ... supported

The point group is C1 - hence turning off symmetry
If this is a round-off problem, please increase the symmetry
        detection tolerance (%method SymThresh)

Storing the symmetry object:
Symmetry file                     ... input_86.sym.tmp
Writing symmetry information      ... done

                       ****************************
                       * Single Point Calculation *
                       ****************************

---------------------------------
CARTESIAN COORDINATES (ANGSTROEM)
---------------------------------
  V      0.705254    0.851407    0.097473
  S     -0.079955    1.144146   -2.230004
  S     -1.539244    1.657841    0.759506
  S      2.081009   -1.007728   -0.787039
  S      0.588323   -0.556375    2.119567
  O      1.694330    2.054112    0.414729
  C     -1.525455    1.187508    2.452884
  C     -0.671668    0.294314    2.998530
  C      1.001868    0.058638   -3.092968
  C      1.860147   -0.800271   -2.517373
  S     -2.771682    1.868617    3.552058
  S     -0.917598   -0.091720    4.733022
  S      2.816024   -1.842177   -3.625455
  S      0.940575    0.044081   -4.888864
  C     -2.307592    0.961677    4.991816
  C      2.106689   -1.263085   -5.138837
  C     -2.959095    1.071543    6.205810
  C      2.430671   -1.762813   -6.363719
  S     -4.321847    2.186431    6.442709
  S     -2.453039    0.128792    7.624014
  S      1.684558   -1.147065   -7.862654
  S      3.598506   -3.097997   -6.559073
  C      2.432952   -4.366131   -7.296757
  C      0.822072   -2.720806   -8.401086
  C      1.776960   -3.880836   -8.569475
  H      1.774854   -4.571314   -6.443373
  H      3.141008   -5.196836   -7.419721
  H      1.170365   -4.721966   -8.937258
  H      2.523899   -3.667662   -9.340575
  H      0.362091   -2.353372   -9.328291
  H      0.052287   -2.818182   -7.625753
  C     -1.961994    1.476584    8.696053
  C     -3.581444    3.266504    7.664523
  C     -3.063821    2.576876    8.995220
  H     -2.609315    3.887068    7.525040
  H     -4.168799    4.100662    8.195681
  H     -3.933185    2.000187    9.353483
  H     -2.770419    3.290507    9.780364
  H     -1.661558    1.317833    9.794094
  H     -1.137535    2.260589    8.465451

----------------------------
CARTESIAN COORDINATES (A.U.)
----------------------------
  NO LB      ZA    FRAG     MASS         X           Y           Z
   0 V    23.0000    0    50.940    1.332736    1.608926    0.184197
   1 S    16.0000    0    32.060   -0.151093    2.162123   -4.214098
   2 S    16.0000    0    32.060   -2.908750    3.132866    1.435259
   3 S    16.0000    0    32.060    3.932538   -1.904330   -1.487288
   4 S    16.0000    0    32.060    1.111769   -1.051396    4.005402
   5 O     8.0000    0    15.999    3.201819    3.881709    0.783724
   6 C     6.0000    0    12.011   -2.882692    2.244065    4.635279
   7 C     6.0000    0    12.011   -1.269268    0.556172    5.666400
   8 C     6.0000    0    12.011    1.893256    0.110809   -5.844862
   9 C     6.0000    0    12.011    3.515169   -1.512293   -4.757146
  10 S    16.0000    0    32.060   -5.237720    3.531175    6.712417
  11 S    16.0000    0    32.060   -1.734008   -0.173326    8.944116
  12 S    16.0000    0    32.060    5.321513   -3.481210   -6.851117
  13 S    16.0000    0    32.060    1.777428    0.083301   -9.238614
  14 C     6.0000    0    12.011   -4.360716    1.817306    9.433166
  15 C     6.0000    0    12.011    3.981066   -2.386885   -9.710994
  16 C     6.0000    0    12.011   -5.591879    2.024923   11.727281
  17 C     6.0000    0    12.011    4.593303   -3.331233  -12.025686
  18 S    16.0000    0    32.060   -8.167107    4.131756   12.174956
  19 S    16.0000    0    32.060   -4.635572    0.243382   14.407298
  20 S    16.0000    0    32.060    3.183354   -2.167639  -14.858263
  21 S    16.0000    0    32.060    6.800191   -5.854366  -12.394852
  22 C     6.0000    0    12.011    4.597613   -8.250793  -13.788872
  23 C     6.0000    0    12.011    1.553491   -5.141579  -15.875752
  24 C     6.0000    0    12.011    3.357967   -7.333717  -16.193961
  25 H     1.0000    0     1.008    3.353988   -8.638531  -12.176211
  26 H     1.0000    0     1.008    5.935646   -9.820596  -14.021240
  27 H     1.0000    0     1.008    2.211670   -8.923222  -16.888970
  28 H     1.0000    0     1.008    4.769478   -6.930877  -17.651129
  29 H     1.0000    0     1.008    0.684253   -4.447228  -17.627915
  30 H     1.0000    0     1.008    0.098808   -5.325591  -14.410584
  31 C     6.0000    0    12.011   -3.707631    2.790339   16.433159
  32 C     6.0000    0    12.011   -6.767948    6.172797   14.483850
  33 C     6.0000    0    12.011   -5.789782    4.869591   16.998503
  34 H     1.0000    0     1.008   -4.930891    7.345494   14.220265
  35 H     1.0000    0     1.008   -7.877888    7.749128   15.487593
  36 H     1.0000    0     1.008   -7.432642    3.779805   17.675522
  37 H     1.0000    0     1.008   -5.235333    6.218156   18.482209
  38 H     1.0000    0     1.008   -3.139889    2.490343   18.508156
  39 H     1.0000    0     1.008   -2.149630    4.271893   15.997385

--------------------------------
INTERNAL COORDINATES (ANGSTROEM)
--------------------------------
 V      0   0   0     0.000000000000     0.00000000     0.00000000
 S      1   0   0     2.473741874550     0.00000000     0.00000000
 S      1   2   0     2.475155741484    85.71389432     0.00000000
 S      1   2   3     2.476175585717    85.93534916   148.62892269
 S      1   2   3     2.466655406975   145.46631397    75.88381668
 O      1   2   3     1.589157856529   107.20734711   255.26389811
 C      3   1   2     1.757535408811    99.40446232   165.60133628
 C      7   3   1     1.350732793755   124.82954567   342.87372350
 C      2   1   3     1.758799584736   101.14926851   202.40209087
 C      9   2   1     1.343754348147   125.25356972     8.19547847
 S      7   3   1     1.795877156275   118.86665227   165.82226957
 S      8   7   3     1.793869459595   116.50253300   183.46234632
 S     10   9   2     1.796416901709   116.51084577   177.93130595
 S      9   2   1     1.797000782693   118.31849990   186.33509270
 C     12   8   7     1.763151617300    96.97471129     0.25946076
 C     13  10   9     1.768848935948    97.15088896   358.18146003
 C     15  12   8     1.382138446159   123.23161591   179.50024736
 C     16  13  10     1.361994410354   123.63725493   182.72074301
 S     17  15  12     1.776566607209   121.90990204   177.84162877
 S     17  15  12     1.776562806559   121.64912742   359.21194043
 S     18  16  13     1.783994596737   121.97200947   179.87743897
 S     18  16  13     1.784577726124   121.91269927     1.33058785
 C     22  18  16     1.873728505342    98.18622379   116.82421679
 C     21  18  16     1.873620282974    98.28345126   243.02015862
 C     23  22  18     1.511836670016   112.58722698    57.82520526
 H     23  22  18     1.097021360720   101.15647218   292.09943843
 H     23  22  18     1.098423179139    98.91290788   180.14902259
 H     25  23  22     1.100327335564   105.97425863   176.71561215
 H     25  23  22     1.094512120346   111.06897830    61.05000804
 H     24  21  18     1.098316785965    98.88166436   180.25775923
 H     24  21  18     1.096901604902   101.21484102    68.29047349
 C     20  17  15     1.790791947169    99.00994741   116.42841386
 C     19  17  15     1.790972402184    98.76090211   243.69656850
 C     32  20  17     1.585612654769   116.40213319    56.73808606
 H     33  19  17     1.161718542638   125.88602579    59.03788324
 H     33  19  17     1.150188903767   122.77197888   186.32103785
 H     34  32  20     1.103048726957   104.25058695    52.82069051
 H     34  32  20     1.100819162154   113.52890904   170.70492227
 H     32  20  17     1.149416629101   122.65687361   173.29729950
 H     32  20  17     1.160850190141   125.74135977   300.43994185

---------------------------
INTERNAL COORDINATES (A.U.)
---------------------------
 V      0   0   0     0.000000000000     0.00000000     0.00000000
 S      1   0   0     4.674694668912     0.00000000     0.00000000
 S      1   2   0     4.677366490207    85.71389432     0.00000000
 S      1   2   3     4.679293716507    85.93534916   148.62892269
 S      1   2   3     4.661303185938   145.46631397    75.88381668
 O      1   2   3     3.003073132410   107.20734711   255.26389811
 C      3   1   2     3.321260593323    99.40446232   165.60133628
 C      7   3   1     2.552515060303   124.82954567   342.87372350
 C      2   1   3     3.323649539605   101.14926851   202.40209087
 C      9   2   1     2.539327709264   125.25356972     8.19547847
 S      7   3   1     3.393715995525   118.86665227   165.82226957
 S      8   7   3     3.389921998639   116.50253300   183.46234632
 S     10   9   2     3.394735966577   116.51084577   177.93130595
 S      9   2   1     3.395839341732   118.31849990   186.33509270
 C     12   8   7     3.331873689278    96.97471129     0.25946076
 C     13  10   9     3.342640061221    97.15088896   358.18146003
 C     15  12   8     2.611863142403   123.23161591   179.50024736
 C     16  13  10     2.573796431501   123.63725493   182.72074301
 S     17  15  12     3.357224346294   121.90990204   177.84162877
 S     17  15  12     3.357217164108   121.64912742   359.21194043
 S     18  16  13     3.371261212228   121.97200947   179.87743897
 S     18  16  13     3.372363167070   121.91269927     1.33058785
 C     22  18  16     3.540833724418    98.18622379   116.82421679
 C     21  18  16     3.540629213780    98.28345126   243.02015862
 C     23  22  18     2.856957265550   112.58722698    57.82520526
 H     23  22  18     2.073069934822   101.15647218   292.09943843
 H     23  22  18     2.075718987724    98.91290788   180.14902259
 H     25  23  22     2.079317321883   105.97425863   176.71561215
 H     25  23  22     2.068328157712   111.06897830    61.05000804
 H     24  21  18     2.075517933763    98.88166436   180.25775923
 H     24  21  18     2.072843629124   101.21484102    68.29047349
 C     20  17  15     3.384106342981    99.00994741   116.42841386
 C     19  17  15     3.384447353539    98.76090211   243.69656850
 C     32  20  17     2.996373671994   116.40213319    56.73808606
 H     33  19  17     2.195329890284   125.88602579    59.03788324
 H     33  19  17     2.173542030395   122.77197888   186.32103785
 H     34  32  20     2.084460006320   104.25058695    52.82069051
 H     34  32  20     2.080246739443   113.52890904   170.70492227
 H     32  20  17     2.172082642776   122.65687361   173.29729950
 H     32  20  17     2.193688941877   125.74135977   300.43994185

---------------------
BASIS SET INFORMATION
---------------------
There are 5 groups of distinct atoms

 Group   1 Type V   : 17s11p5d1f contracted to 17s7p3d1f pattern {11111111111111111/3311111/311/1}
 Group   2 Type S   : 14s9p1d contracted to 5s4p1d pattern {73211/6111/1}
 Group   3 Type O   : 11s6p1d contracted to 5s3p1d pattern {62111/411/1}
 Group   4 Type C   : 11s6p1d contracted to 5s3p1d pattern {62111/411/1}
 Group   5 Type H   : 5s1p contracted to 3s1p pattern {311/1}

Atom   0V    basis set group =>   1
Atom   1S    basis set group =>   2
Atom   2S    basis set group =>   2
Atom   3S    basis set group =>   2
Atom   4S    basis set group =>   2
Atom   5O    basis set group =>   3
Atom   6C    basis set group =>   4
Atom   7C    basis set group =>   4
Atom   8C    basis set group =>   4
Atom   9C    basis set group =>   4
Atom  10S    basis set group =>   2
Atom  11S    basis set group =>   2
Atom  12S    basis set group =>   2
Atom  13S    basis set group =>   2
Atom  14C    basis set group =>   4
Atom  15C    basis set group =>   4
Atom  16C    basis set group =>   4
Atom  17C    basis set group =>   4
Atom  18S    basis set group =>   2
Atom  19S    basis set group =>   2
Atom  20S    basis set group =>   2
Atom  21S    basis set group =>   2
Atom  22C    basis set group =>   4
Atom  23C    basis set group =>   4
Atom  24C    basis set group =>   4
Atom  25H    basis set group =>   5
Atom  26H    basis set group =>   5
Atom  27H    basis set group =>   5
Atom  28H    basis set group =>   5
Atom  29H    basis set group =>   5
Atom  30H    basis set group =>   5
Atom  31C    basis set group =>   4
Atom  32C    basis set group =>   4
Atom  33C    basis set group =>   4
Atom  34H    basis set group =>   5
Atom  35H    basis set group =>   5
Atom  36H    basis set group =>   5
Atom  37H    basis set group =>   5
Atom  38H    basis set group =>   5
Atom  39H    basis set group =>   5

-------------------------
BASIS SET IN INPUT FORMAT
-------------------------

 # Basis set for element : H 
 NewGTO H 
 S 3 
   1      34.0613410000      0.0254393168
   2       5.1235746000      0.1900859340
   3       1.1646626000      0.8524411390
 S 1 
   1       0.3272304100      1.0000000000
 S 1 
   1       0.1030724100      1.0000000000
 P 1 
   1       0.8000000000      1.0000000000
  end;

 # Basis set for element : C 
 NewGTO C 
 S 6 
   1   13575.3496820000      0.0006064601
   2    2035.2333680000      0.0046978985
   3     463.2256235900      0.0243324735
   4     131.2001959800      0.0973999560
   5      42.8530158900      0.3019558443
   6      15.5841857700      0.6623361013
 S 2 
   1       6.2067138500      0.6559530795
   2       2.5764896500      0.3758563390
 S 1 
   1       0.5769633900      1.0000000000
 S 1 
   1       0.2297283100      1.0000000000
 S 1 
   1       0.0951644400      1.0000000000
 P 4 
   1      34.6972322400      0.0113272290
   2       7.9582622800      0.0761696612
   3       2.3780826900      0.3019225154
   4       0.8143320800      0.7278502776
 P 1 
   1       0.2888754700      1.0000000000
 P 1 
   1       0.1005682400      1.0000000000
 D 1 
   1       0.8000000000      1.0000000000
  end;

 # Basis set for element : O 
 NewGTO O 
 S 6 
   1   27032.3826310000      0.0005722654
   2    4052.3871392000      0.0044353333
   3     922.3272271000      0.0230201034
   4     261.2407098900      0.0928224938
   5      85.3546413500      0.2937849971
   6      31.0350352400      0.6740160462
 S 2 
   1      12.2608607300      0.6383993750
   2       4.9987076000      0.3953458663
 S 1 
   1       1.1703108200      1.0000000000
 S 1 
   1       0.4647474100      1.0000000000
 S 1 
   1       0.1850453600      1.0000000000
 P 4 
   1      63.2749548000      0.0120183316
   2      14.6270493800      0.0830054304
   3       4.4501223500      0.3199174388
   4       1.5275799600      0.7071554258
 P 1 
   1       0.5293511800      1.0000000000
 P 1 
   1       0.1747842100      1.0000000000
 D 1 
   1       1.2000000000      1.0000000000
  end;

 # Basis set for element : S 
 NewGTO S 
 S 7 
   1   60700.9281040000      0.0005238013
   2    9102.6106854000      0.0040506304
   3    2071.4166009000      0.0208270003
   4     586.0247682100      0.0814968475
   5     190.5539502100      0.2374911358
   6      67.6303842600      0.4472617145
   7      25.1273069100      0.3489191913
 S 3 
   1     112.5746301000      0.1004556993
   2      34.7955542200      0.4339117282
   3       6.5115556200     -1.2084330582
 S 2 
   1       3.2399032300      0.6749812922
   2       1.5477160900      0.3470879597
 S 1 
   1       0.4054103000      1.0000000000
 S 1 
   1       0.1455065100      1.0000000000
 P 6 
   1     564.3671602700      0.0025564845
   2     133.4262437900      0.0202874255
   3      42.4682711900      0.0927670112
   4      15.6165275800      0.2650208365
   5       6.1093988500      0.4486298663
   6       2.4404160200      0.3596369916
 P 1 
   1       0.8388220100      1.0000000000
 P 1 
   1       0.3128874700      1.0000000000
 P 1 
   1       0.1077010900      1.0000000000
 D 1 
   1       0.5500000000      1.0000000000
  end;

 # Basis set for element : V 
 NewGTO V 
 S 1 
   1  4239814.9912500000      1.0000000000
 S 1 
   1  1695925.9965000001      1.0000000000
 S 1 
   1  678370.3986000001      1.0000000000
 S 1 
   1  271348.1594400000      1.0000000000
 S 1 
   1   40672.0050780000      1.0000000000
 S 1 
   1    9257.0761385000      1.0000000000
 S 1 
   1    2622.7328773000      1.0000000000
 S 1 
   1     858.5948018500      1.0000000000
 S 1 
   1     314.1941865000      1.0000000000
 S 1 
   1     124.4786212700      1.0000000000
 S 1 
   1      50.4693993090      1.0000000000
 S 1 
   1      12.5138469110      1.0000000000
 S 1 
   1       5.3447758082      1.0000000000
 S 1 
   1       1.5755631295      1.0000000000
 S 1 
   1       0.6306903307      1.0000000000
 S 1 
   1       0.0879544416      1.0000000000
 S 1 
   1       0.0342969197      1.0000000000
 P 3 
   1    1450.0319327000     -0.0222847647
   2     343.7504988400     -0.1817959329
   3     110.8252170800     -0.8607412073
 P 3 
   1      41.8224645460     -0.2522537814
   2      17.0880737100     -0.4620379520
   3       7.2613218939     -0.3990010670
 P 1 
   1       2.9458145262      1.0000000000
 P 1 
   1       1.1650209680      1.0000000000
 P 1 
   1       0.4339937839      1.0000000000
 D 3 
   1      27.3603358640      0.0575501019
   2       7.4542765527      0.3023798347
   3       2.4632270217      0.7724212088
 D 1 
   1       0.8249954244      1.0000000000
 D 1 
   1       0.2526297057      1.0000000000
 P 1 
   1       0.1112480000      1.0000000000
 P 1 
   1       0.0363780000      1.0000000000
 F 1 
   1       1.8000000000      1.0000000000
  end;

---------------------------------
AUXILIARY/J BASIS SET INFORMATION
---------------------------------
There are 5 groups of distinct atoms

 Group   1 Type V   : 19s5p5d3f3g contracted to 8s5p5d2f3g pattern {121111111/11111/11111/21/111}
 Group   2 Type S   : 14s5p5d2f1g contracted to 8s4p3d1f1g pattern {71111111/2111/311/2/1}
 Group   3 Type O   : 12s5p4d2f1g contracted to 6s4p3d1f1g pattern {711111/2111/211/2/1}
 Group   4 Type C   : 12s5p4d2f1g contracted to 6s4p3d1f1g pattern {711111/2111/211/2/1}
 Group   5 Type H   : 5s2p1d contracted to 3s1p1d pattern {311/2/1}

Atom   0V    basis set group =>   1
Atom   1S    basis set group =>   2
Atom   2S    basis set group =>   2
Atom   3S    basis set group =>   2
Atom   4S    basis set group =>   2
Atom   5O    basis set group =>   3
Atom   6C    basis set group =>   4
Atom   7C    basis set group =>   4
Atom   8C    basis set group =>   4
Atom   9C    basis set group =>   4
Atom  10S    basis set group =>   2
Atom  11S    basis set group =>   2
Atom  12S    basis set group =>   2
Atom  13S    basis set group =>   2
Atom  14C    basis set group =>   4
Atom  15C    basis set group =>   4
Atom  16C    basis set group =>   4
Atom  17C    basis set group =>   4
Atom  18S    basis set group =>   2
Atom  19S    basis set group =>   2
Atom  20S    basis set group =>   2
Atom  21S    basis set group =>   2
Atom  22C    basis set group =>   4
Atom  23C    basis set group =>   4
Atom  24C    basis set group =>   4
Atom  25H    basis set group =>   5
Atom  26H    basis set group =>   5
Atom  27H    basis set group =>   5
Atom  28H    basis set group =>   5
Atom  29H    basis set group =>   5
Atom  30H    basis set group =>   5
Atom  31C    basis set group =>   4
Atom  32C    basis set group =>   4
Atom  33C    basis set group =>   4
Atom  34H    basis set group =>   5
Atom  35H    basis set group =>   5
Atom  36H    basis set group =>   5
Atom  37H    basis set group =>   5
Atom  38H    basis set group =>   5
Atom  39H    basis set group =>   5

-------------------------------------
AUXILIARY/J BASIS SET IN INPUT FORMAT
-------------------------------------

 # Auxiliary/J basis set for element : H 
 NewAuxJGTO H 
 S 3 
   1      15.6752927000      0.1007184237
   2       3.6063578000      0.3404257499
   3       1.2080016000      0.6491996172
 S 1 
   1       0.4726794000      1.0000000000
 S 1 
   1       0.2018100000      1.0000000000
 P 2 
   1       2.0281365000      0.5596620919
   2       0.5358730000      0.5596620919
 D 1 
   1       2.2165124000      1.0000000000
  end;

 # Auxiliary/J basis set for element : C 
 NewAuxJGTO C 
 S 7 
   1    1861.0916331000      0.0134602335
   2     642.9939764000      0.0299160374
   3     235.1105725000      0.1008649584
   4      90.7028894000      0.2370970548
   5      36.7794552000      0.3924037254
   6      15.6046273000      0.3195862154
   7       6.8907294000      0.0530104441
 S 1 
   1       3.1478850000     -1.0000000000
 S 1 
   1       1.4777287000      1.0000000000
 S 1 
   1       0.7076466000      1.0000000000
 S 1 
   1       0.3430122000      1.0000000000
 S 1 
   1       0.1669453000      1.0000000000
 P 2 
   1      13.5472892000     -0.6769313712
   2       5.4669419000     -0.3779500978
 P 1 
   1       2.1751721000      1.0000000000
 P 1 
   1       0.8582194000      1.0000000000
 P 1 
   1       0.3376720000      1.0000000000
 D 2 
   1       5.9287253000     -0.3533329857
   2       1.9809209000     -0.7456525731
 D 1 
   1       0.8055417000     -1.0000000000
 D 1 
   1       0.3531244000     -1.0000000000
 F 2 
   1       1.6755626000      0.6311076882
   2       0.5997536000      0.4968166032
 G 1 
   1       1.0024600000     -1.0000000000
  end;

 # Auxiliary/J basis set for element : O 
 NewAuxJGTO O 
 S 7 
   1    2876.8216605000      0.0168151159
   2    1004.7443032000      0.0340137548
   3     369.7579954000      0.1194951309
   4     142.9442404000      0.2664627624
   5      57.8366425000      0.4202764046
   6      24.3864983000      0.2765077335
   7      10.6622662000      0.0057008815
 S 1 
   1       4.8070437000     -1.0000000000
 S 1 
   1       2.2210770000      1.0000000000
 S 1 
   1       1.0447795000      1.0000000000
 S 1 
   1       0.4968425000      1.0000000000
 S 1 
   1       0.2371384000      1.0000000000
 P 2 
   1      64.2613382000     -0.2731534179
   2      16.3006076000     -0.8168011598
 P 1 
   1       4.3550542000      1.0000000000
 P 1 
   1       1.2019554000      1.0000000000
 P 1 
   1       0.3354196000      1.0000000000
 D 2 
   1       9.2146611000     -0.4661230638
   2       2.8435251000     -0.6600908911
 D 1 
   1       0.9955759000     -1.0000000000
 D 1 
   1       0.3649441000     -1.0000000000
 F 2 
   1       2.6420115000      0.5931563945
   2       0.7345613000      0.5931563945
 G 1 
   1       1.3931000000     -1.0000000000
  end;

 # Auxiliary/J basis set for element : S 
 NewAuxJGTO S 
 S 7 
   1    7399.0303145000      0.0295137551
   2    2710.1675859000      0.0559686311
   3    1034.3279062000      0.1764696370
   4     410.4645411000      0.3577969368
   5     168.9762502000      0.4299293578
   6      71.9687889000      0.1259148089
   7      31.6172683000     -0.0646025788
 S 1 
   1      14.2796836000      1.0000000000
 S 1 
   1       6.6060948000      1.0000000000
 S 1 
   1       3.1181477000      1.0000000000
 S 1 
   1       1.4954039000     -1.0000000000
 S 1 
   1       0.7254779000      1.0000000000
 S 1 
   1       0.3544216000      1.0000000000
 S 1 
   1       0.1735525000      1.0000000000
 P 2 
   1      12.6998799000      1.4059102813
   2       4.4295784000     -1.2124994202
 P 1 
   1       1.5232889000      1.0000000000
 P 1 
   1       0.5194667000     -1.0000000000
 P 1 
   1       0.1766547000     -1.0000000000
 D 3 
   1      16.8546461000      1.0295742104
   2       5.0810461000     -0.7461553923
   3       1.5102323000      0.8357028005
 D 1 
   1       0.4451331000      1.0000000000
 D 1 
   1       0.1308362000      1.0000000000
 F 2 
   1       1.0809860000      0.5572698934
   2       0.4161474000      0.5572698934
 G 1 
   1       0.6707100000     -1.0000000000
  end;

 # Auxiliary/J basis set for element : V 
 NewAuxJGTO V 
 S 12 
   1   11942.0842430000      0.0459866720
   2    2430.7110193000      0.1744615821
   3     841.0764301000      0.2900402792
   4     494.7508273000      0.1411212903
   5     291.0298903000      0.2660697186
   6     171.1940483000      0.0446365706
   7      59.2366916000     -0.0408204801
   8      34.8451117000      0.1394665381
   9      20.4971240000      0.2164746715
  10      12.0571314000      0.0864266611
  11       7.0924300000     -0.0568501658
  12       4.1720176000     -0.0126212852
 S 1 
   1       2.4541279000      1.0000000000
 S 1 
   1       1.4436046000      1.0000000000
 S 1 
   1       0.8491792000      1.0000000000
 S 1 
   1       0.2938336000      1.0000000000
 S 1 
   1       0.1728433000      1.0000000000
 S 1 
   1       0.1016725000      1.0000000000
 S 1 
   1       0.0598074000      1.0000000000
 P 1 
   1      16.7130979000     -1.0000000000
 P 1 
   1       4.7454037000     -1.0000000000
 P 1 
   1       1.3889998000      1.0000000000
 P 1 
   1       0.4142440000     -1.0000000000
 P 1 
   1       0.1243234000      1.0000000000
 D 1 
   1       7.7143225000      1.0000000000
 D 1 
   1       3.1170731000      1.0000000000
 D 1 
   1       1.2767950000     -1.0000000000
 D 1 
   1       0.5273386000      1.0000000000
 D 1 
   1       0.2184050000      1.0000000000
 F 2 
   1       3.1309344000     -1.0825667766
   2       1.0419780000      0.1809223232
 F 1 
   1       0.3559044000      1.0000000000
 G 1 
   1       8.7130110000      1.0000000000
 G 1 
   1       2.7493872000      1.0000000000
 G 1 
   1       0.8775089000      1.0000000000
  end;



           ************************************************************
           *        Program running with 6 parallel MPI-processes     *
           *              working on a common directory               *
           ************************************************************
------------------------------------------------------------------------------
                           ORCA GTO INTEGRAL CALCULATION
                           -- RI-GTO INTEGRALS CHOSEN --
------------------------------------------------------------------------------
------------------------------------------------------------------------------
                   ___                                                        
                  /   \      - P O W E R E D   B Y -                         
                 /     \                                                     
                 |  |  |   _    _      __       _____    __    __             
                 |  |  |  | |  | |    /  \     |  _  \  |  |  /  |          
                  \  \/   | |  | |   /    \    | | | |  |  | /  /          
                 / \  \   | |__| |  /  /\  \   | |_| |  |  |/  /          
                |  |  |   |  __  | /  /__\  \  |    /   |      \           
                |  |  |   | |  | | |   __   |  |    \   |  |\   \          
                \     /   | |  | | |  |  |  |  | |\  \  |  | \   \       
                 \___/    |_|  |_| |__|  |__|  |_| \__\ |__|  \__/        
                                                                              
                      - O R C A' S   B I G   F R I E N D -                    
                                      &                                       
                       - I N T E G R A L  F E E D E R -                       
                                                                              
 v1 FN, 2020, v2 2021                                                         
------------------------------------------------------------------------------


Reading SHARK input file input_86.SHARKINP.tmp ... ok
----------------------
SHARK INTEGRAL PACKAGE
----------------------

Number of atoms                             ...     40
Number of basis functions                   ...    681
Number of shells                            ...    331
Maximum angular momentum                    ...      3
Integral batch strategy                     ... SHARK/LIBINT Hybrid
RI-J (if used) integral strategy            ... SPLIT-RIJ (Revised 2003 algorithm where possible)
Printlevel                                  ...      1
Contraction scheme used                     ... SEGMENTED contraction
Coulomb Range Separation                    ... NOT USED
Exchange Range Separation                   ... NOT USED
Finite Nucleus Model                        ... NOT USED
Auxiliary Coulomb fitting basis             ... AVAILABLE
   # of basis functions in Aux-J            ...   1568
   # of shells in Aux-J                     ...    512
   Maximum angular momentum in Aux-J        ...      4
Auxiliary J/K fitting basis                 ... NOT available
Auxiliary Correlation fitting basis         ... NOT available
Auxiliary 'external' fitting basis          ... NOT available
Integral threshold                          ...     1.000000e-10
Primitive cut-off                           ...     1.000000e-11
Primitive pair pre-selection threshold      ...     1.000000e-11

Calculating pre-screening integrals         ... done (  0.1 sec) Dimension = 331
Organizing shell pair data                  ... done (  0.1 sec)
Shell pair information
Total number of shell pairs                 ...     54946
Shell pairs after pre-screening             ...     22652
Total number of primitive shell pairs       ...    221635
Primitive shell pairs kept                  ...     55311
          la=0 lb=0:   6394 shell pairs
          la=1 lb=0:   9073 shell pairs
          la=1 lb=1:   3199 shell pairs
          la=2 lb=0:   2125 shell pairs
          la=2 lb=1:   1541 shell pairs
          la=2 lb=2:    197 shell pairs
          la=3 lb=0:     54 shell pairs
          la=3 lb=1:     56 shell pairs
          la=3 lb=2:     12 shell pairs
          la=3 lb=3:      1 shell pairs

Calculating one electron integrals          ... done (  0.0 sec)
Calculating RI/J V-Matrix + Cholesky decomp.... done (  0.2 sec)
Calculating Nuclear repulsion               ... done (  0.0 sec) ENN=   5061.274211423421 Eh

SHARK setup successfully completed in   0.7 seconds

Maximum memory used throughout the entire GTOINT-calculation: 41.8 MB


           ************************************************************
           *        Program running with 6 parallel MPI-processes     *
           *              working on a common directory               *
           ************************************************************
-------------------------------------------------------------------------------
                                 ORCA SCF
-------------------------------------------------------------------------------

------------
SCF SETTINGS
------------
Hamiltonian:
 Density Functional     Method          .... DFT(GTOs)
 Exchange Functional    Exchange        .... B88
   X-Alpha parameter    XAlpha          ....  0.666667
   Becke's b parameter  XBeta           ....  0.004200
 Correlation Functional Correlation     .... LYP
 LDA part of GGA corr.  LDAOpt          .... VWN-5
 Gradients option       PostSCFGGA      .... off
 Hybrid DFT is turned on
   Fraction HF Exchange ScalHFX         ....  0.200000
   Scaling of DF-GGA-X  ScalDFX         ....  0.720000
   Scaling of DF-GGA-C  ScalDFC         ....  0.810000
   Scaling of DF-LDA-C  ScalLDAC        ....  1.000000
   Perturbative correction              ....  0.000000
   Density functional embedding theory  .... OFF
   NL short-range parameter             ....  4.800000
 RI-approximation to the Coulomb term is turned on
   Number of AuxJ basis functions       .... 1568
   RIJ-COSX (HFX calculated with COS-X)).... on


General Settings:
 Integral files         IntName         .... input_86
 Hartree-Fock type      HFTyp           .... UHF
 Total Charge           Charge          ....   -2
 Multiplicity           Mult            ....    2
 Number of Electrons    NEL             ....  321
 Basis Dimension        Dim             ....  681
 Nuclear Repulsion      ENuc            ....   5061.2742114234 Eh

Convergence Acceleration:
 DIIS                   CNVDIIS         .... on
   Start iteration      DIISMaxIt       ....    12
   Startup error        DIISStart       ....  0.200000
   # of expansion vecs  DIISMaxEq       ....     5
   Bias factor          DIISBfac        ....   1.050
   Max. coefficient     DIISMaxC        ....  10.000
 Trust-Rad. Augm. Hess. CNVTRAH         .... auto
   Auto Start mean grad. ratio tolernc. ....  1.125000
   Auto Start start iteration           ....    20
   Auto Start num. interpolation iter.  ....    10
   Max. Number of Micro iterations      ....    16
   Max. Number of Macro iterations      .... Maxiter - #DIIS iter
   Number of Davidson start vectors     ....     2
   Converg. threshold I  (grad. norm)   ....   5.000e-05
   Converg. threshold II (energy diff.) ....   1.000e-06
   Grad. Scal. Fac. for Micro threshold ....   0.100
   Minimum threshold for Micro iter.    ....   0.010
   NR start threshold (gradient norm)   ....   0.001
   Initial trust radius                 ....   0.400
   Minimum AH scaling param. (alpha)    ....   1.000
   Maximum AH scaling param. (alpha)    .... 1000.000
   Orbital update algorithm             .... Taylor
   White noise on init. David. guess    .... on
   Maximum white noise                  ....   0.010
   Quad. conv. algorithm                .... NR
 SOSCF                  CNVSOSCF        .... off
 Level Shifting         CNVShift        .... on
   Level shift para.    LevelShift      ....    0.2500
   Turn off err/grad.   ShiftErr        ....    0.0010
 Zerner damping         CNVZerner       .... off
 Static damping         CNVDamp         .... on
   Fraction old density DampFac         ....    0.7000
   Max. Damping (<1)    DampMax         ....    0.9800
   Min. Damping (>=0)   DampMin         ....    0.0000
   Turn off err/grad.   DampErr         ....    0.1000
 Fernandez-Rico         CNVRico         .... off

SCF Procedure:
 Maximum # iterations   MaxIter         ....   125
 SCF integral mode      SCFMode         .... Direct
   Integral package                     .... SHARK and LIBINT hybrid scheme
 Reset frequency        DirectResetFreq ....    20
 Integral Threshold     Thresh          ....  1.000e-10 Eh
 Primitive CutOff       TCut            ....  1.000e-11 Eh

Convergence Tolerance:
 Convergence Check Mode ConvCheckMode   .... Total+1el-Energy
 Convergence forced     ConvForced      .... 0
 Energy Change          TolE            ....  1.000e-06 Eh
 1-El. energy change                    ....  1.000e-03 Eh
 DIIS Error             TolErr          ....  1.000e-06


Diagonalization of the overlap matrix:
Smallest eigenvalue                        ... 8.558e-05
Time for diagonalization                   ...    0.182 sec
Threshold for overlap eigenvalues          ... 1.000e-08
Number of eigenvalues below threshold      ... 0
Time for construction of square roots      ...    0.156 sec
Total time needed                          ...    0.341 sec

Time for model grid setup =    0.391 sec

------------------------------
INITIAL GUESS: MODEL POTENTIAL
------------------------------
Loading Hartree-Fock densities                     ... done
Calculating cut-offs                               ... done
Initializing the effective Hamiltonian             ... done
Setting up the integral package (SHARK)            ... done
Starting the Coulomb interaction                   ... done (   0.4 sec)
Reading the grid                                   ... done
Mapping shells                                     ... done
Starting the XC term evaluation                    ... done (   0.2 sec)
  promolecular density results
     # of electrons  =    318.992616743
     EX              =   -428.230804483
     EC              =    -12.535673334
     EX+EC           =   -440.766477817
Transforming the Hamiltonian                       ... done (   0.2 sec)
Diagonalizing the Hamiltonian                      ... done (   0.2 sec)
Back transforming the eigenvectors                 ... done (   0.1 sec)
Now organizing SCF variables                       ... done
                      ------------------
                      INITIAL GUESS DONE (   1.5 sec)
                      ------------------
-------------------
DFT GRID GENERATION
-------------------

General Integration Accuracy     IntAcc      ... 4.388
Radial Grid Type                 RadialGrid  ... OptM3 with GC (2021)
Angular Grid (max. ang.)         AngularGrid ... 4 (Lebedev-302)
Angular grid pruning method      GridPruning ... 4 (adaptive)
Weight generation scheme         WeightScheme... Becke
Basis function cutoff            BFCut       ... 1.0000e-10
Integration weight cutoff        WCut        ... 1.0000e-14
Angular grids for H and He will be reduced by one unit
Partially contracted basis set               ... off
Rotationally invariant grid construction     ... off

Total number of grid points                  ...   237366
Total number of batches                      ...     3731
Average number of points per batch           ...       63
Average number of grid points per atom       ...     5934
Time for grid setup =    1.915 sec

--------------------
COSX GRID GENERATION
--------------------

GRIDX 1
-------
General Integration Accuracy     IntAcc      ... 3.816
Radial Grid Type                 RadialGrid  ... OptM3 with GC (2021)
Angular Grid (max. ang.)         AngularGrid ... 1 (Lebedev-50)
Angular grid pruning method      GridPruning ... 4 (adaptive)
Weight generation scheme         WeightScheme... Becke
Basis function cutoff            BFCut       ... 1.0000e-10
Integration weight cutoff        WCut        ... 1.0000e-14
Angular grids for H and He will be reduced by one unit
Partially contracted basis set               ... on
Rotationally invariant grid construction     ... off

Total number of grid points                  ...    29200
Total number of batches                      ...      480
Average number of points per batch           ...       60
Average number of grid points per atom       ...      730
UseSFitting                                  ... on

GRIDX 2
-------
General Integration Accuracy     IntAcc      ... 4.020
Radial Grid Type                 RadialGrid  ... OptM3 with GC (2021)
Angular Grid (max. ang.)         AngularGrid ... 2 (Lebedev-110)
Angular grid pruning method      GridPruning ... 4 (adaptive)
Weight generation scheme         WeightScheme... Becke
Basis function cutoff            BFCut       ... 1.0000e-10
Integration weight cutoff        WCut        ... 1.0000e-14
Angular grids for H and He will be reduced by one unit
Partially contracted basis set               ... on
Rotationally invariant grid construction     ... off

Total number of grid points                  ...    64072
Total number of batches                      ...     1022
Average number of points per batch           ...       62
Average number of grid points per atom       ...     1602
UseSFitting                                  ... on

GRIDX 3
-------
General Integration Accuracy     IntAcc      ... 4.338
Radial Grid Type                 RadialGrid  ... OptM3 with GC (2021)
Angular Grid (max. ang.)         AngularGrid ... 3 (Lebedev-194)
Angular grid pruning method      GridPruning ... 4 (adaptive)
Weight generation scheme         WeightScheme... Becke
Basis function cutoff            BFCut       ... 1.0000e-10
Integration weight cutoff        WCut        ... 1.0000e-14
Angular grids for H and He will be reduced by one unit
Partially contracted basis set               ... on
Rotationally invariant grid construction     ... off

Total number of grid points                  ...   147298
Total number of batches                      ...     2321
Average number of points per batch           ...       63
Average number of grid points per atom       ...     3682
UseSFitting                                  ... on

Time for X-Grid setup             =    2.153 sec

--------------
SCF ITERATIONS
--------------
ITER       Energy         Delta-E        Max-DP      RMS-DP      [F,P]     Damp
               ***  Starting incremental Fock matrix formation  ***
  0  -6336.8257783847   0.000000000000 0.05280455  0.00065837  0.2297016 0.7000
  1  -6337.1574481053  -0.331669720586 0.11332225  0.00062289  0.1558601 0.7000
                               ***Turning on DIIS***
  2  -6337.3225461843  -0.165098078985 0.05175246  0.00032855  0.1090560 0.7000
  3  -6337.4126813879  -0.090135203575 0.05592476  0.00055453  0.0771765 0.0000
  4  -6337.6317758168  -0.219094428860 0.06903666  0.00032501  0.0122866 0.0000
  5  -6337.6375370175  -0.005761200797 0.01274653  0.00008339  0.0089853 0.0000
  6  -6337.6388380291  -0.001301011597 0.00328697  0.00003916  0.0037562 0.0000
  7  -6337.6392131806  -0.000375151497 0.00178729  0.00002267  0.0014020 0.0000
  8  -6337.6393801903  -0.000167009656 0.00276295  0.00001903  0.0014143 0.0000
  9  -6337.6394892265  -0.000109036222 0.00336063  0.00004208  0.0009208 0.0000
               *** Restarting incremental Fock matrix formation ***
                                   *** Resetting DIIS ***
 10  -6337.6395980525  -0.000108825998 0.00134615  0.00001436  0.0008085 0.0000
 11  -6337.6395666257   0.000031426819 0.00053156  0.00000386  0.0023976 0.0000
 12  -6337.6396116618  -0.000045036059 0.00035994  0.00000511  0.0008728 0.0000
 13  -6337.6396202623  -0.000008600530 0.00060213  0.00000425  0.0002889 0.0000
 14  -6337.6396229161  -0.000002653778 0.00027416  0.00000260  0.0001189 0.0000
 15  -6337.6396242677  -0.000001351636 0.00012604  0.00000134  0.0001405 0.0000
 16  -6337.6396245500  -0.000000282311 0.00015706  0.00000110  0.0000655 0.0000
                 **** Energy Check signals convergence ****

               *****************************************************
               *                     SUCCESS                       *
               *           SCF CONVERGED AFTER  17 CYCLES          *
               *****************************************************

Old exchange energy                            =    -85.905259026 Eh
New exchange energy                            =    -85.905264839 Eh
Exchange energy change after final integration =     -0.000005813 Eh
Total energy after final integration           =  -6337.639630676 Eh
Final COS-X integration done in                =    28.056 sec

----------------
TOTAL SCF ENERGY
----------------

Total Energy       :        -6337.63963068 Eh         -172455.94184 eV

Components:
Nuclear Repulsion  :         5061.27421142 Eh          137724.27306 eV
Electronic Energy  :       -11398.91384210 Eh         -310180.21490 eV
One Electron Energy:       -18892.30844957 Eh         -514085.84853 eV
Two Electron Energy:         7493.39460747 Eh          203905.63363 eV
Max COSX asymmetry :            0.00000345 Eh               0.00009 eV

Virial components:
Potential Energy   :       -12658.59028980 Eh         -344457.75368 eV
Kinetic Energy     :         6320.95065912 Eh          172001.81184 eV
Virial Ratio       :            2.00264026


DFT components:
N(Alpha)           :      161.000032805782 electrons
N(Beta)            :      160.000030115568 electrons
N(Total)           :      321.000062921350 electrons
E(X)               :     -341.389375536064 Eh       
E(C)               :      -14.718137157984 Eh       
E(XC)              :     -356.107512694048 Eh       
DFET-embed. en.    :        0.000000000000 Eh       

---------------
SCF CONVERGENCE
---------------

  Last Energy change         ...   -3.1296e-07  Tolerance :   1.0000e-06
  Last MAX-Density change    ...    0.0000e+00  Tolerance :   1.0000e-05
  Last RMS-Density change    ...    0.0000e+00  Tolerance :   1.0000e-06
  Last DIIS Error            ...    3.0350e-05  Tolerance :   1.0000e-06

             **** THE GBW FILE WAS UPDATED (input_86.gbw) ****
             **** DENSITY input_86.scfp WAS UPDATED ****
             **** ENERGY FILE WAS UPDATED (input_86.en.tmp) ****
----------------------
UHF SPIN CONTAMINATION
----------------------

Warning: in a DFT calculation there is little theoretical justification to 
         calculate <S**2> as in Hartree-Fock theory. We will do it anyways
         but you should keep in mind that the values have only limited relevance

Expectation value of <S**2>     :     0.765640
Ideal value S*(S+1) for S=0.5   :     0.750000
Deviation                       :     0.015640

             **** THE GBW FILE WAS UPDATED (input_86.gbw) ****
             **** DENSITY input_86.scfp WAS UPDATED ****
----------------
ORBITAL ENERGIES
----------------
                 SPIN UP ORBITALS
  NO   OCC          E(Eh)            E(eV) 
   0   1.0000    -196.676496     -5351.8395 
   1   1.0000     -88.744159     -2414.8513 
   2   1.0000     -88.744008     -2414.8472 
   3   1.0000     -88.735682     -2414.6207 
   4   1.0000     -88.735523     -2414.6163 
   5   1.0000     -88.731414     -2414.5045 
   6   1.0000     -88.731273     -2414.5007 
   7   1.0000     -88.729823     -2414.4612 
   8   1.0000     -88.729796     -2414.4605 
   9   1.0000     -88.642217     -2412.0773 
  10   1.0000     -88.642011     -2412.0718 
  11   1.0000     -88.640749     -2412.0374 
  12   1.0000     -88.640263     -2412.0242 
  13   1.0000     -22.051864      -600.0617 
  14   1.0000     -18.891683      -514.0688 
  15   1.0000     -18.558304      -504.9971 
  16   1.0000     -18.553148      -504.8568 
  17   1.0000     -18.553045      -504.8540 
  18   1.0000     -10.082755      -274.3657 
  19   1.0000     -10.074907      -274.1522 
  20   1.0000     -10.068148      -273.9682 
  21   1.0000     -10.068114      -273.9673 
  22   1.0000     -10.066965      -273.9360 
  23   1.0000     -10.066801      -273.9316 
  24   1.0000     -10.057417      -273.6762 
  25   1.0000     -10.053558      -273.5712 
  26   1.0000     -10.048020      -273.4205 
  27   1.0000     -10.045086      -273.3407 
  28   1.0000     -10.022257      -272.7195 
  29   1.0000     -10.021339      -272.6945 
  30   1.0000     -10.018181      -272.6086 
  31   1.0000     -10.017375      -272.5866 
  32   1.0000      -7.797368      -212.1772 
  33   1.0000      -7.797239      -212.1736 
  34   1.0000      -7.788881      -211.9462 
  35   1.0000      -7.788752      -211.9427 
  36   1.0000      -7.784970      -211.8398 
  37   1.0000      -7.784849      -211.8365 
  38   1.0000      -7.783104      -211.7890 
  39   1.0000      -7.783080      -211.7884 
  40   1.0000      -7.696547      -209.4337 
  41   1.0000      -7.696275      -209.4263 
  42   1.0000      -7.695007      -209.3918 
  43   1.0000      -7.694591      -209.3805 
  44   1.0000      -5.762616      -156.8087 
  45   1.0000      -5.762484      -156.8052 
  46   1.0000      -5.758839      -156.7060 
  47   1.0000      -5.758701      -156.7022 
  48   1.0000      -5.753789      -156.5686 
  49   1.0000      -5.753659      -156.5650 
  50   1.0000      -5.752027      -156.5206 
  51   1.0000      -5.751902      -156.5172 
  52   1.0000      -5.749870      -156.4619 
  53   1.0000      -5.749752      -156.4587 
  54   1.0000      -5.749324      -156.4471 
  55   1.0000      -5.749185      -156.4433 
  56   1.0000      -5.748063      -156.4127 
  57   1.0000      -5.748035      -156.4120 
  58   1.0000      -5.746573      -156.3722 
  59   1.0000      -5.746454      -156.3690 
  60   1.0000      -5.744819      -156.3245 
  61   1.0000      -5.744696      -156.3211 
  62   1.0000      -5.743640      -156.2924 
  63   1.0000      -5.743620      -156.2919 
  64   1.0000      -5.739796      -156.1878 
  65   1.0000      -5.739660      -156.1841 
  66   1.0000      -5.738883      -156.1629 
  67   1.0000      -5.738873      -156.1627 
  68   1.0000      -5.661876      -154.0675 
  69   1.0000      -5.661633      -154.0609 
  70   1.0000      -5.660314      -154.0250 
  71   1.0000      -5.659884      -154.0133 
  72   1.0000      -5.655165      -153.8849 
  73   1.0000      -5.654912      -153.8780 
  74   1.0000      -5.653862      -153.8494 
  75   1.0000      -5.653691      -153.8447 
  76   1.0000      -5.653567      -153.8414 
  77   1.0000      -5.653280      -153.8336 
  78   1.0000      -5.652335      -153.8079 
  79   1.0000      -5.651906      -153.7962 
  80   1.0000      -2.445478       -66.5448 
  81   1.0000      -1.486719       -40.4557 
  82   1.0000      -1.475149       -40.1408 
  83   1.0000      -1.474318       -40.1182 
  84   1.0000      -0.712543       -19.3893 
  85   1.0000      -0.710845       -19.3431 
  86   1.0000      -0.688055       -18.7229 
  87   1.0000      -0.684009       -18.6128 
  88   1.0000      -0.651142       -17.7185 
  89   1.0000      -0.633310       -17.2332 
  90   1.0000      -0.628752       -17.1092 
  91   1.0000      -0.618706       -16.8358 
  92   1.0000      -0.618346       -16.8260 
  93   1.0000      -0.579080       -15.7576 
  94   1.0000      -0.577421       -15.7124 
  95   1.0000      -0.574383       -15.6297 
  96   1.0000      -0.573585       -15.6080 
  97   1.0000      -0.499693       -13.5973 
  98   1.0000      -0.496310       -13.5053 
  99   1.0000      -0.496011       -13.4971 
 100   1.0000      -0.494603       -13.4588 
 101   1.0000      -0.482393       -13.1266 
 102   1.0000      -0.477745       -13.0001 
 103   1.0000      -0.449546       -12.2328 
 104   1.0000      -0.433051       -11.7839 
 105   1.0000      -0.415632       -11.3099 
 106   1.0000      -0.411126       -11.1873 
 107   1.0000      -0.359420        -9.7803 
 108   1.0000      -0.352610        -9.5950 
 109   1.0000      -0.327182        -8.9031 
 110   1.0000      -0.324959        -8.8426 
 111   1.0000      -0.318389        -8.6638 
 112   1.0000      -0.315499        -8.5852 
 113   1.0000      -0.305470        -8.3123 
 114   1.0000      -0.302132        -8.2214 
 115   1.0000      -0.298458        -8.1215 
 116   1.0000      -0.270292        -7.3550 
 117   1.0000      -0.265487        -7.2243 
 118   1.0000      -0.262594        -7.1456 
 119   1.0000      -0.254607        -6.9282 
 120   1.0000      -0.249434        -6.7874 
 121   1.0000      -0.244590        -6.6556 
 122   1.0000      -0.232809        -6.3351 
 123   1.0000      -0.227697        -6.1959 
 124   1.0000      -0.220947        -6.0123 
 125   1.0000      -0.219389        -5.9699 
 126   1.0000      -0.213010        -5.7963 
 127   1.0000      -0.208248        -5.6667 
 128   1.0000      -0.199877        -5.4389 
 129   1.0000      -0.194119        -5.2822 
 130   1.0000      -0.184981        -5.0336 
 131   1.0000      -0.183056        -4.9812 
 132   1.0000      -0.182855        -4.9757 
 133   1.0000      -0.178392        -4.8543 
 134   1.0000      -0.160942        -4.3795 
 135   1.0000      -0.151321        -4.1177 
 136   1.0000      -0.147333        -4.0091 
 137   1.0000      -0.139691        -3.8012 
 138   1.0000      -0.135412        -3.6848 
 139   1.0000      -0.133739        -3.6392 
 140   1.0000      -0.126379        -3.4390 
 141   1.0000      -0.122680        -3.3383 
 142   1.0000      -0.114969        -3.1285 
 143   1.0000      -0.111027        -3.0212 
 144   1.0000      -0.103053        -2.8042 
 145   1.0000      -0.099471        -2.7067 
 146   1.0000      -0.098712        -2.6861 
 147   1.0000      -0.095602        -2.6015 
 148   1.0000      -0.076107        -2.0710 
 149   1.0000      -0.069711        -1.8969 
 150   1.0000      -0.067250        -1.8300 
 151   1.0000      -0.054153        -1.4736 
 152   1.0000      -0.047178        -1.2838 
 153   1.0000      -0.040759        -1.1091 
 154   1.0000      -0.038553        -1.0491 
 155   1.0000      -0.032808        -0.8927 
 156   1.0000      -0.026544        -0.7223 
 157   1.0000      -0.020671        -0.5625 
 158   1.0000      -0.017211        -0.4683 
 159   1.0000       0.018529         0.5042 
 160   1.0000       0.039636         1.0786 
 161   0.0000       0.131128         3.5682 
 162   0.0000       0.136347         3.7102 
 163   0.0000       0.154434         4.2024 
 164   0.0000       0.162587         4.4242 
 165   0.0000       0.167964         4.5705 
 166   0.0000       0.169036         4.5997 
 167   0.0000       0.170467         4.6387 
 168   0.0000       0.172687         4.6991 
 169   0.0000       0.173412         4.7188 
 170   0.0000       0.174190         4.7400 
 171   0.0000       0.175846         4.7850 
 172   0.0000       0.180551         4.9131 
 173   0.0000       0.189868         5.1666 
 174   0.0000       0.197298         5.3688 
 175   0.0000       0.197721         5.3803 
 176   0.0000       0.197907         5.3853 
 177   0.0000       0.201380         5.4798 
 178   0.0000       0.203718         5.5435 
 179   0.0000       0.208393         5.6706 
 180   0.0000       0.211430         5.7533 
 181   0.0000       0.216737         5.8977 
 182   0.0000       0.221311         6.0222 
 183   0.0000       0.222270         6.0483 
 184   0.0000       0.225549         6.1375 
 185   0.0000       0.227715         6.1965 
 186   0.0000       0.233885         6.3643 
 187   0.0000       0.236868         6.4455 
 188   0.0000       0.237206         6.4547 
 189   0.0000       0.239603         6.5199 
 190   0.0000       0.244312         6.6481 
 191   0.0000       0.246822         6.7164 
 192   0.0000       0.247591         6.7373 
 193   0.0000       0.257252         7.0002 
 194   0.0000       0.259930         7.0731 
 195   0.0000       0.265334         7.2201 
 196   0.0000       0.271209         7.3800 
 197   0.0000       0.272373         7.4116 
 198   0.0000       0.274778         7.4771 
 199   0.0000       0.275084         7.4854 
 200   0.0000       0.284195         7.7333 
 201   0.0000       0.287021         7.8102 
 202   0.0000       0.297082         8.0840 
 203   0.0000       0.307042         8.3550 
 204   0.0000       0.308211         8.3868 
 205   0.0000       0.313653         8.5349 
 206   0.0000       0.321668         8.7530 
 207   0.0000       0.329623         8.9695 
 208   0.0000       0.333931         9.0867 
 209   0.0000       0.339835         9.2474 
 210   0.0000       0.349246         9.5035 
 211   0.0000       0.351618         9.5680 
 212   0.0000       0.354660         9.6508 
 213   0.0000       0.356483         9.7004 
 214   0.0000       0.358881         9.7657 
 215   0.0000       0.368780        10.0350 
 216   0.0000       0.370495        10.0817 
 217   0.0000       0.376187        10.2366 
 218   0.0000       0.379827        10.3356 
 219   0.0000       0.381107        10.3705 
 220   0.0000       0.388615        10.5748 
 221   0.0000       0.390478        10.6254 
 222   0.0000       0.397328        10.8118 
 223   0.0000       0.400510        10.8984 
 224   0.0000       0.400550        10.8995 
 225   0.0000       0.401384        10.9222 
 226   0.0000       0.406167        11.0524 
 227   0.0000       0.409646        11.1470 
 228   0.0000       0.411031        11.1847 
 229   0.0000       0.414093        11.2680 
 230   0.0000       0.422422        11.4947 
 231   0.0000       0.424375        11.5478 
 232   0.0000       0.426274        11.5995 
 233   0.0000       0.427529        11.6337 
 234   0.0000       0.434936        11.8352 
 235   0.0000       0.438674        11.9369 
 236   0.0000       0.447704        12.1826 
 237   0.0000       0.448435        12.2025 
 238   0.0000       0.455346        12.3906 
 239   0.0000       0.458706        12.4820 
 240   0.0000       0.462041        12.5728 
 241   0.0000       0.468372        12.7451 
 242   0.0000       0.471773        12.8376 
 243   0.0000       0.474454        12.9105 
 244   0.0000       0.474610        12.9148 
 245   0.0000       0.478616        13.0238 
 246   0.0000       0.479250        13.0410 
 247   0.0000       0.484035        13.1713 
 248   0.0000       0.488492        13.2925 
 249   0.0000       0.490120        13.3369 
 250   0.0000       0.491239        13.3673 
 251   0.0000       0.498710        13.5706 
 252   0.0000       0.499478        13.5915 
 253   0.0000       0.505295        13.7498 
 254   0.0000       0.509268        13.8579 
 255   0.0000       0.514595        14.0028 
 256   0.0000       0.515059        14.0155 
 257   0.0000       0.515522        14.0281 
 258   0.0000       0.517395        14.0790 
 259   0.0000       0.522759        14.2250 
 260   0.0000       0.524176        14.2636 
 261   0.0000       0.525088        14.2884 
 262   0.0000       0.525617        14.3028 
 263   0.0000       0.526464        14.3258 
 264   0.0000       0.530144        14.4259 
 265   0.0000       0.532473        14.4893 
 266   0.0000       0.535841        14.5810 
 267   0.0000       0.540995        14.7212 
 268   0.0000       0.543789        14.7973 
 269   0.0000       0.547726        14.9044 
 270   0.0000       0.551030        14.9943 
 271   0.0000       0.551832        15.0161 
 272   0.0000       0.557683        15.1753 
 273   0.0000       0.558737        15.2040 
 274   0.0000       0.565323        15.3832 
 275   0.0000       0.568014        15.4565 
 276   0.0000       0.572336        15.5740 
 277   0.0000       0.576006        15.6739 
 278   0.0000       0.577109        15.7039 
 279   0.0000       0.579050        15.7567 
 280   0.0000       0.584554        15.9065 
 281   0.0000       0.585445        15.9308 
 282   0.0000       0.585954        15.9446 
 283   0.0000       0.596026        16.2187 
 284   0.0000       0.598371        16.2825 
 285   0.0000       0.601924        16.3792 
 286   0.0000       0.605666        16.4810 
 287   0.0000       0.610929        16.6242 
 288   0.0000       0.611638        16.6435 
 289   0.0000       0.617863        16.8129 
 290   0.0000       0.620284        16.8788 
 291   0.0000       0.622497        16.9390 
 292   0.0000       0.628071        17.0907 
 293   0.0000       0.634106        17.2549 
 294   0.0000       0.635889        17.3034 
 295   0.0000       0.636751        17.3269 
 296   0.0000       0.639761        17.4088 
 297   0.0000       0.642529        17.4841 
 298   0.0000       0.655623        17.8404 
 299   0.0000       0.656582        17.8665 
 300   0.0000       0.666784        18.1441 
 301   0.0000       0.684596        18.6288 
 302   0.0000       0.688549        18.7364 
 303   0.0000       0.704024        19.1575 
 304   0.0000       0.711429        19.3590 
 305   0.0000       0.714872        19.4526 
 306   0.0000       0.718964        19.5640 
 307   0.0000       0.726002        19.7555 
 308   0.0000       0.730938        19.8898 
 309   0.0000       0.733369        19.9560 
 310   0.0000       0.742876        20.2147 
 311   0.0000       0.752833        20.4856 
 312   0.0000       0.766162        20.8483 
 313   0.0000       0.768546        20.9132 
 314   0.0000       0.770806        20.9747 
 315   0.0000       0.782591        21.2954 
 316   0.0000       0.783349        21.3160 
 317   0.0000       0.791607        21.5407 
 318   0.0000       0.809438        22.0259 
 319   0.0000       0.813924        22.1480 
 320   0.0000       0.817907        22.2564 
 321   0.0000       0.818818        22.2812 
 322   0.0000       0.825351        22.4590 
 323   0.0000       0.827961        22.5300 
 324   0.0000       0.843187        22.9443 
 325   0.0000       0.847678        23.0665 
 326   0.0000       0.854952        23.2644 
 327   0.0000       0.860522        23.4160 
 328   0.0000       0.864656        23.5285 
 329   0.0000       0.865382        23.5483 
 330   0.0000       0.869456        23.6591 
 331   0.0000       0.874632        23.8000 
 332   0.0000       0.875920        23.8350 
 333   0.0000       0.877914        23.8893 
 334   0.0000       0.884650        24.0725 
 335   0.0000       0.892449        24.2848 
 336   0.0000       0.898686        24.4545 
 337   0.0000       0.902945        24.5704 
 338   0.0000       0.911190        24.7948 
 339   0.0000       0.917438        24.9648 
 340   0.0000       0.918408        24.9911 
 341   0.0000       0.918797        25.0017 
 342   0.0000       0.931107        25.3367 
 343   0.0000       0.936380        25.4802 
 344   0.0000       0.939211        25.5572 
 345   0.0000       0.942065        25.6349 
 346   0.0000       0.946590        25.7580 
 347   0.0000       0.949423        25.8351 
 348   0.0000       0.958396        26.0793 
 349   0.0000       0.962904        26.2020 
 350   0.0000       0.968395        26.3514 
 351   0.0000       0.979014        26.6403 
 352   0.0000       0.987971        26.8841 
 353   0.0000       0.992960        27.0198 
 354   0.0000       1.006424        27.3862 
 355   0.0000       1.008045        27.4303 
 356   0.0000       1.009372        27.4664 
 357   0.0000       1.013862        27.5886 
 358   0.0000       1.014412        27.6036 
 359   0.0000       1.017851        27.6971 
 360   0.0000       1.031228        28.0612 
 361   0.0000       1.036207        28.1966 
 362   0.0000       1.040777        28.3210 
 363   0.0000       1.047920        28.5153 
 364   0.0000       1.057684        28.7810 
 365   0.0000       1.063391        28.9363 
 366   0.0000       1.067103        29.0374 
 367   0.0000       1.068558        29.0769 
 368   0.0000       1.069658        29.1069 
 369   0.0000       1.078099        29.3366 
 370   0.0000       1.086365        29.5615 
 371   0.0000       1.091880        29.7116 
 372   0.0000       1.096737        29.8437 
 373   0.0000       1.099750        29.9257 
 374   0.0000       1.106469        30.1085 
 375   0.0000       1.106961        30.1219 
 376   0.0000       1.109398        30.1883 
 377   0.0000       1.116106        30.3708 
 378   0.0000       1.129706        30.7409 
 379   0.0000       1.139729        31.0136 
 380   0.0000       1.141346        31.0576 
 381   0.0000       1.155289        31.4370 
 382   0.0000       1.158533        31.5253 
 383   0.0000       1.161459        31.6049 
 384   0.0000       1.164759        31.6947 
 385   0.0000       1.198492        32.6126 
 386   0.0000       1.201462        32.6935 
 387   0.0000       1.224970        33.3331 
 388   0.0000       1.226538        33.3758 
 389   0.0000       1.234581        33.5946 
 390   0.0000       1.244418        33.8623 
 391   0.0000       1.248998        33.9870 
 392   0.0000       1.274026        34.6680 
 393   0.0000       1.279645        34.8209 
 394   0.0000       1.291640        35.1473 
 395   0.0000       1.292511        35.1710 
 396   0.0000       1.297238        35.2996 
 397   0.0000       1.319660        35.9098 
 398   0.0000       1.324293        36.0358 
 399   0.0000       1.333071        36.2747 
 400   0.0000       1.334567        36.3154 
 401   0.0000       1.351871        36.7863 
 402   0.0000       1.360110        37.0105 
 403   0.0000       1.391621        37.8679 
 404   0.0000       1.406566        38.2746 
 405   0.0000       1.414665        38.4950 
 406   0.0000       1.415507        38.5179 
 407   0.0000       1.416407        38.5424 
 408   0.0000       1.420770        38.6611 
 409   0.0000       1.425159        38.7805 
 410   0.0000       1.440837        39.2072 
 411   0.0000       1.446060        39.3493 
 412   0.0000       1.463539        39.8249 
 413   0.0000       1.473781        40.1036 
 414   0.0000       1.484490        40.3950 
 415   0.0000       1.488193        40.4958 
 416   0.0000       1.497571        40.7510 
 417   0.0000       1.505828        40.9757 
 418   0.0000       1.513053        41.1723 
 419   0.0000       1.520094        41.3639 
 420   0.0000       1.528860        41.6024 
 421   0.0000       1.537843        41.8468 
[...]
Total number of batches                      ...      301
Average number of points per batch           ...       59
Average number of grid points per atom       ...      444

Memory available               ... 812.8 MB
Memory needed per perturbation ...  48.1 MB
Perturbations treated per batch... 3
Number of batches              ... 1
     CP-SCF ITERATION   0:   4.4128e-02 (   6.2 sec   0/  3 done)
     CP-SCF ITERATION   1:   1.1372e-03 (   6.3 sec   1/  3 done)
     CP-SCF ITERATION   2:   1.3606e-04 (   5.2 sec   3/  3 done)
                    *** THE CP-SCF HAS CONVERGED ***

Forming final perturbed densities           ... done
Transforming perturbed density to AO basis  ... done

 Raw HFC matrix (all values in MHz): 
 -----------------------------------
                -0.0447              -0.0031              -0.0510
                -0.0032              -0.0557               0.0139
                -0.0514               0.0136               0.1746

 A(FC)           0.0246               0.0246               0.0246
 A(SD)          -0.0812              -0.0821               0.1632
 A(ORB+DIA)      0.0005               0.0010              -0.0011    A(PC) =   0.0001
 A(ORB)          0.0005               0.0010              -0.0011    A(PC) =   0.0001
 A(DIA)         -0.0000              -0.0000               0.0000    A(PC) =  -0.0000
             ----------           ----------           ----------
 A(Tot)         -0.0561              -0.0565               0.1868    A(iso)=    0.0247
 Orientation: 
  X          -0.9399049            0.2646894            0.2156810
  Y           0.2581364            0.9643335           -0.0585362
  Z          -0.2234823            0.0006566           -0.9747078

Notes:  (1) The A matrix conforms to the "SAI" spin Hamiltonian convention.
        (2) Tensor is right-handed.

 Raw EFG matrix (all values in a.u.**-3):
 -----------------------------------
            -0.0934      -0.0165       0.0816
            -0.0165      -0.0890      -0.0585
             0.0816      -0.0585       0.1824

 V(El)       0.5811       0.6970      -1.2780
 V(Nuc)     -0.6821      -0.8127       1.4949
         ----------   ----------   ----------
 V(Tot)     -0.1011      -0.1158       0.2168 
 Orientation: 
  X       0.0217328   -0.9655505    0.2593067
  Y       0.9803242   -0.0303176   -0.1950522
  Z       0.1961943    0.2584437    0.9458936

Note: Tensor is right-handed


 Quadrupole tensor eigenvalues (in MHz;Q= 0.0029 I=  1.0)
  e**2qQ            =     0.145611 MHz 
  e**2qQ/(4I*(2I-1))=     0.036403 MHz 
  eta               =     0.067574
  NOTE: the diagonal representation of the SH term I*Q*I = e**2qQ/(4I(2I-1))*[-(1-eta),-(1+eta),2]

 RHO(0)=      0.413642325 a.u.**-3

 -----------------------------------------------------------
 Nucleus  39H : A:ISTP=    1 I=  0.5 P=533.5514 MHz/au**3
                Q:ISTP=    2 I=  1.0 Q=  0.0029 barn     
 -----------------------------------------------------------
 Solving for nuclear perturbation:
Forming RHS of the CP-SCF equations         ... 
Calc. nucleus orbit integrals (SHARK)       ... done

------------------------------------------------------------------------------
                           ORCA CP-SCF CALCULATION
------------------------------------------------------------------------------

Input orbitals are from        ... input_86.gbw
Input Perturbation             ... input_86.pin.tmp
Wavefunction output            ... input_86.pout.tmp
Perturbation mode              ... Imaginary perturbation
Solver                         ... POPLE
Max. number of iterations      ... 64
Convergence tolerance          ... 1.000e-03
Integral handling              ... Direct
DFT GridXC                     ... 1
COSX GridX                     ... 1
COSX IntAccX                   ... 3.067
COSX Algorithm                 ... Auto
Number of perturbations        ... 3
Number of operators            ... 2
Orbital ranges used for CP-SCF:
 Operator 0:  Orbitals   0...160  to 161...680
 Operator 1:  Orbitals   0...159  to 160...680
Variables per perturbation     ... 167080
DFT calculation                         ... on
XC functional terms                     ... off
Hybrid DFT                              ... on
   Exchange mixing (SCF)                ...  0.200
   Exchange mixing (CP-SCF)             ...  0.200
   GGA exch. scaling(SCF)               ...  0.720
   GGA exch. scaling (CP-SCF)           ...  0.720
   GGA corr. scaling (SCF)              ...  0.810
   GGA corr. scaling (CP-SCF)           ...  0.810

CP-SCF GRID
-----------

General Integration Accuracy     IntAcc      ... 3.467
Radial Grid Type                 RadialGrid  ... OptM3 with GC (2021)
Angular Grid (max. ang.)         AngularGrid ... 1 (Lebedev-50)
Angular grid pruning method      GridPruning ... 4 (adaptive)
Weight generation scheme         WeightScheme... Becke
Basis function cutoff            BFCut       ... 1.0000e-10
Integration weight cutoff        WCut        ... 1.0000e-14
Angular grids for H and He will be reduced by one unit
Partially contracted basis set               ... off
Rotationally invariant grid construction     ... off

Total number of grid points                  ...    39337
Total number of batches                      ...      635
Average number of points per batch           ...       61
Average number of grid points per atom       ...      983

CP-SCF GRIDX
------------

General Integration Accuracy     IntAcc      ... 3.067
Radial Grid Type                 RadialGrid  ... OptM3 with GC (2021)
Angular Grid (max. ang.)         AngularGrid ... 1 (Lebedev-50)
Angular grid pruning method      GridPruning ... 4 (adaptive)
Weight generation scheme         WeightScheme... Becke
Basis function cutoff            BFCut       ... 1.0000e-10
Integration weight cutoff        WCut        ... 1.0000e-14
Angular grids for H and He will be reduced by one unit
Partially contracted basis set               ... on
Rotationally invariant grid construction     ... off

Total number of grid points                  ...    17773
Total number of batches                      ...      301
Average number of points per batch           ...       59
Average number of grid points per atom       ...      444

Memory available               ... 809.9 MB
Memory needed per perturbation ...  48.1 MB
Perturbations treated per batch... 3
Number of batches              ... 1
     CP-SCF ITERATION   0:   4.3779e-02 (   6.2 sec   0/  3 done)
     CP-SCF ITERATION   1:   1.4907e-03 (   6.4 sec   1/  3 done)
     CP-SCF ITERATION   2:   1.6473e-04 (   5.2 sec   3/  3 done)
                    *** THE CP-SCF HAS CONVERGED ***

Forming final perturbed densities           ... done
Transforming perturbed density to AO basis  ... done

 Raw HFC matrix (all values in MHz): 
 -----------------------------------
                -0.1142              -0.0111              -0.0673
                -0.0112              -0.1162               0.0634
                -0.0675               0.0632               0.2140

 A(FC)          -0.0059              -0.0059              -0.0059
 A(SD)          -0.1223              -0.1238               0.2461
 A(ORB+DIA)      0.0018               0.0007              -0.0013    A(PC) =   0.0004
 A(ORB)          0.0019               0.0007              -0.0014    A(PC) =   0.0004
 A(DIA)         -0.0000              -0.0001               0.0000    A(PC) =  -0.0000
             ----------           ----------           ----------
 A(Tot)         -0.1263              -0.1290               0.2389    A(iso)=   -0.0055
 Orientation: 
  X           0.7568653           -0.6254288           -0.1897200
  Y           0.6529644            0.7361053            0.1782873
  Z           0.0281479           -0.2588199            0.9655154

Notes:  (1) The A matrix conforms to the "SAI" spin Hamiltonian convention.
        (2) Tensor is right-handed.

 Raw EFG matrix (all values in a.u.**-3):
 -----------------------------------
             0.0592       0.1398      -0.0556
             0.1398       0.0216      -0.0445
            -0.0556      -0.0445      -0.0808

 V(El)       0.4332       0.5215      -0.9547
 V(Nuc)     -0.5299      -0.6244       1.1543
         ----------   ----------   ----------
 V(Tot)     -0.0966      -0.1029       0.1996 
 Orientation: 
  X       0.2424912   -0.6375983    0.7312089
  Y      -0.5796388    0.5091701    0.6362112
  Z      -0.7779569   -0.5781127   -0.2461075

Note: Tensor is right-handed


 Quadrupole tensor eigenvalues (in MHz;Q= 0.0029 I=  1.0)
  e**2qQ            =     0.134011 MHz 
  e**2qQ/(4I*(2I-1))=     0.033503 MHz 
  eta               =     0.031701
  NOTE: the diagonal representation of the SH term I*Q*I = e**2qQ/(4I(2I-1))*[-(1-eta),-(1+eta),2]

 RHO(0)=      0.410094656 a.u.**-3

 -----------------------------------------------------------
 Nucleus   0V : A:ISTP=   51 I=  3.5 P=140.5173 MHz/au**3
                Q:ISTP=   51 I=  3.5 Q= -0.0430 barn     
 -----------------------------------------------------------
 Solving for nuclear perturbation:
Forming RHS of the CP-SCF equations         ... 
Calc. nucleus orbit integrals (SHARK)       ... done

------------------------------------------------------------------------------
                           ORCA CP-SCF CALCULATION
------------------------------------------------------------------------------

Input orbitals are from        ... input_86.gbw
Input Perturbation             ... input_86.pin.tmp
Wavefunction output            ... input_86.pout.tmp
Perturbation mode              ... Imaginary perturbation
Solver                         ... POPLE
Max. number of iterations      ... 64
Convergence tolerance          ... 1.000e-03
Integral handling              ... Direct
DFT GridXC                     ... 1
COSX GridX                     ... 1
COSX IntAccX                   ... 3.067
COSX Algorithm                 ... Auto
Number of perturbations        ... 3
Number of operators            ... 2
Orbital ranges used for CP-SCF:
 Operator 0:  Orbitals   0...160  to 161...680
 Operator 1:  Orbitals   0...159  to 160...680
Variables per perturbation     ... 167080
DFT calculation                         ... on
XC functional terms                     ... off
Hybrid DFT                              ... on
   Exchange mixing (SCF)                ...  0.200
   Exchange mixing (CP-SCF)             ...  0.200
   GGA exch. scaling(SCF)               ...  0.720
   GGA exch. scaling (CP-SCF)           ...  0.720
   GGA corr. scaling (SCF)              ...  0.810
   GGA corr. scaling (CP-SCF)           ...  0.810

CP-SCF GRID
-----------

General Integration Accuracy     IntAcc      ... 3.467
Radial Grid Type                 RadialGrid  ... OptM3 with GC (2021)
Angular Grid (max. ang.)         AngularGrid ... 1 (Lebedev-50)
Angular grid pruning method      GridPruning ... 4 (adaptive)
Weight generation scheme         WeightScheme... Becke
Basis function cutoff            BFCut       ... 1.0000e-10
Integration weight cutoff        WCut        ... 1.0000e-14
Angular grids for H and He will be reduced by one unit
Partially contracted basis set               ... off
Rotationally invariant grid construction     ... off

Total number of grid points                  ...    39337
Total number of batches                      ...      635
Average number of points per batch           ...       61
Average number of grid points per atom       ...      983

CP-SCF GRIDX
------------

General Integration Accuracy     IntAcc      ... 3.067
Radial Grid Type                 RadialGrid  ... OptM3 with GC (2021)
Angular Grid (max. ang.)         AngularGrid ... 1 (Lebedev-50)
Angular grid pruning method      GridPruning ... 4 (adaptive)
Weight generation scheme         WeightScheme... Becke
Basis function cutoff            BFCut       ... 1.0000e-10
Integration weight cutoff        WCut        ... 1.0000e-14
Angular grids for H and He will be reduced by one unit
Partially contracted basis set               ... on
Rotationally invariant grid construction     ... off

Total number of grid points                  ...    17773
Total number of batches                      ...      301
Average number of points per batch           ...       59
Average number of grid points per atom       ...      444

Memory available               ... 807.1 MB
Memory needed per perturbation ...  48.1 MB
Perturbations treated per batch... 3
Number of batches              ... 1
     CP-SCF ITERATION   0:   1.1565e+01 (   6.7 sec   0/  3 done)
     CP-SCF ITERATION   1:   1.9984e+00 (   6.4 sec   0/  3 done)
     CP-SCF ITERATION   2:   3.3753e-01 (   6.4 sec   0/  3 done)
     CP-SCF ITERATION   3:   4.0374e-02 (   6.4 sec   0/  3 done)
     CP-SCF ITERATION   4:   8.0010e-03 (   6.4 sec   0/  3 done)
     CP-SCF ITERATION   5:   2.1707e-03 (   6.5 sec   0/  3 done)
     CP-SCF ITERATION   6:   3.6073e-04 (   6.5 sec   3/  3 done)
                    *** THE CP-SCF HAS CONVERGED ***

Forming final perturbed densities           ... done
Transforming perturbed density to AO basis  ... done

 Raw HFC matrix (all values in MHz): 
 -----------------------------------
              -204.1539            -144.1875             -33.7141
              -143.6905            -258.9462             -43.7197
               -32.9970             -43.0423             -98.3747

 A(FC)        -175.2577            -175.2577            -175.2577
 A(SD)          98.0844              93.7894            -191.8738
 A(ORB+DIA)     -6.9221              -7.5260             -21.2536    A(PC) = -11.9006
 A(ORB)         -6.9217              -7.5265             -21.2535    A(PC) = -11.9006
 A(DIA)         -0.0004               0.0005              -0.0002    A(PC) =  -0.0000
             ----------           ----------           ----------
 A(Tot)        -84.0954             -88.9942            -388.3852    A(iso)= -187.1583
 Orientation: 
  X           0.6553458            0.4232634            0.6255957
  Y          -0.6400619           -0.1285726            0.7574892
  Z           0.4010519           -0.8968373            0.1866553

Notes:  (1) The A matrix conforms to the "SAI" spin Hamiltonian convention.
        (2) Tensor is right-handed.

 Raw EFG matrix (all values in a.u.**-3):
 -----------------------------------
             0.0725       0.1410       0.0724
             0.1410       0.0848       0.0007
             0.0724       0.0007      -0.1573

 V(El)       0.1877      -0.4756       0.2879
 V(Nuc)     -0.2289       0.2901      -0.0613
         ----------   ----------   ----------
 V(Tot)     -0.0412      -0.1854       0.2266 
 Orientation: 
  X       0.6152357   -0.3578314   -0.7024540
  Y      -0.6908616    0.1844769   -0.6990555
  Z       0.3797305    0.9153824   -0.1337152

Note: Tensor is right-handed


 Quadrupole tensor eigenvalues (in MHz;Q=-0.0430 I=  3.5)
  e**2qQ            =    -2.289407 MHz 
  e**2qQ/(4I*(2I-1))=    -0.027255 MHz 
  eta               =     0.636678
  NOTE: the diagonal representation of the SH term I*Q*I = e**2qQ/(4I(2I-1))*[-(1-eta),-(1+eta),2]

 RHO(0)=   8115.202091117 a.u.**-3


--------------------------------------------------------------------------------
----------------------------------------------------------------------------
                           ORCA EULER ANGLE PROGRAM
----------------------------------------------------------------------------

Only g-tensor available        -->  using g-tensor as reference tensor

Reference tensor               ...  g

g-tensor ordering              ...  |g_min> --> |gx>
                                    |g_mid> --> |gy>
                                    |g_max> --> |gz>

A- and EFG-tensor ordering     ...  the axes |Ax>, |Qx>, |Ay>, etc. are assigned
                                    such that the Euler rotation is minimal. You
                                    can find the respective eigenvalues as Ax,
                                    EFGx, Ay, etc. in the tables below.
                                    The relation of |Ax>, |Ay>,  etc. to Amin, Amid, etc.
                                    (as printed in the ORCA EPR/NMR CALCULATION Output)
                                    is obtained in the detailed printout.

Euler rotation around          ...  z - y - z
   First rotation              -->  by alpha around z
   Second rotation             -->  by beta around y'
   Third rotation              -->  by gamma around z''
   Positive / Negative angle   -->  clockwise / counterclockwise rotation

Plot EFG-tensors                    (-)
Plot HFC-tensors                    (-)
Detailed Printout                   (-)

-------------------------------------------------------------------------
          Euler rotation of hyperfine tensor to g-tensor
-------------------------------------------------------------------------

-------------------------------------------------------------------
 Atom  |   Alpha    Beta    Gamma   |   Ax       Ay       Az 
       |          [degrees]         |           [MHz]         
-------------------------------------------------------------------
 25H      -66.7      6.2     93.0      -0.13     0.26    -0.13
 26H      -18.5     30.1     36.2      -0.08     0.16    -0.08
 27H       47.8      5.0    -22.6      -0.07     0.13    -0.07
 28H       55.8      4.5    -40.3      -0.07     0.13    -0.07
 29H      156.4     45.5   -143.0      -0.08     0.16    -0.08
 30H      121.4     15.4    -95.8      -0.13     0.26    -0.13
 34H      -30.8      4.3     36.8      -0.13     0.24    -0.13
 35H      -11.3     35.4      9.7      -0.06     0.19    -0.06
 36H       54.6      6.3    -61.4      -0.07     0.14    -0.07
 37H       86.0      5.8    -82.8      -0.07     0.13    -0.07
 38H      144.4     31.5   -149.7      -0.06     0.19    -0.06
 39H       70.6     14.9    -64.8      -0.13     0.24    -0.13
  0V       79.9      5.5    -86.2    -388.39   -88.99   -84.10
-------------------------------------------------------------------


-------------------------------------------------------------------------------
    Euler rotation of Electric Field Gradient (EFG) tensor to g-tensor
-------------------------------------------------------------------------------

-------------------------------------------------------------------
 Atom  |   Alpha    Beta    Gamma  |   EFGx     EFGy     EFGz
       |          [degrees]        |         [a.u.**-3]       
-------------------------------------------------------------------
 25H      158.7     17.8    170.8     -0.14     0.28    -0.14
 26H       34.5     36.7    -74.9     -0.14    -0.15     0.28
 27H       53.5      3.7    -69.5      0.28    -0.14    -0.14
 28H       36.1      3.7    -68.4     -0.15     0.29    -0.14
 29H     -143.7     29.5    103.4     -0.14    -0.15     0.28
 30H       -4.8     22.5    -25.0     -0.14     0.28    -0.14
 34H       72.8     21.3    -52.6      0.20    -0.10    -0.10
 35H     -129.9     48.7    155.7     -0.12     0.22    -0.10
 36H       84.3      5.7    -55.3      0.27    -0.14    -0.14
 37H       14.6      6.9    -57.5      0.28    -0.15    -0.13
 38H     -137.1     42.1     99.1     -0.10    -0.12     0.22
 39H     -113.0      7.9    132.9      0.20    -0.10    -0.10
  0V       55.8      7.6    -57.0      0.23    -0.19    -0.04
-------------------------------------------------------------------


Maximum memory used throughout the entire EPRNMR-calculation: 318.8 MB

Timings for individual modules:

Sum of individual times         ...     3975.505 sec (=  66.258 min)
GTO integral calculation        ...        1.534 sec (=   0.026 min)   0.0 %
Spin-Orbit-Coupling Matrices    ...       13.159 sec (=   0.219 min)   0.3 %
SCF iterations                  ...      234.548 sec (=   3.909 min)   5.9 %
EPR/NMR calculation             ...     3726.264 sec (=  62.104 min)  93.7 %
                             ****ORCA TERMINATED NORMALLY****
TOTAL RUN TIME: 0 days 1 hours 6 minutes 16 seconds 753 msec
