
                                 *****************
                                 * O   R   C   A *
                                 *****************

                                            #,                                       
                                            ###                                      
                                            ####                                     
                                            #####                                    
                                            ######                                   
                                           ########,                                 
                                     ,,################,,,,,                         
                               ,,#################################,,                 
                          ,,##########################################,,             
                       ,#########################################, ''#####,          
                    ,#############################################,,   '####,        
                  ,##################################################,,,,####,       
                ,###########''''           ''''###############################       
              ,#####''   ,,,,##########,,,,          '''####'''          '####       
            ,##' ,,,,###########################,,,                        '##       
           ' ,,###''''                  '''############,,,                           
         ,,##''                                '''############,,,,        ,,,,,,###''
      ,#''                                            '''#######################'''  
     '                                                          ''''####''''         
             ,#######,   #######,   ,#######,      ##                                
            ,#'     '#,  ##    ##  ,#'     '#,    #''#        ######   ,####,        
            ##       ##  ##   ,#'  ##            #'  '#       #        #'  '#        
            ##       ##  #######   ##           ,######,      #####,   #    #        
            '#,     ,#'  ##    ##  '#,     ,#' ,#      #,         ##   #,  ,#        
             '#######'   ##     ##  '#######'  #'      '#     #####' # '####'        



                  #######################################################
                  #                        -***-                        #
                  #          Department of theory and spectroscopy      #
                  #    Directorship and core code : Frank Neese         #
                  #        Max Planck Institute fuer Kohlenforschung    #
                  #                Kaiser Wilhelm Platz 1               #
                  #                 D-45470 Muelheim/Ruhr               #
                  #                      Germany                        #
                  #                                                     #
                  #                  All rights reserved                #
                  #                        -***-                        #
                  #######################################################


                         Program Version 5.0.4 -  RELEASE  -


 With contributions from (in alphabetic order):
   Daniel Aravena         : Magnetic Suceptibility
   Michael Atanasov       : Ab Initio Ligand Field Theory (pilot matlab implementation)
   Alexander A. Auer      : GIAO ZORA, VPT2 properties, NMR spectrum
   Ute Becker             : Parallelization
   Giovanni Bistoni       : ED, misc. LED, open-shell LED, HFLD
   Martin Brehm           : Molecular dynamics
   Dmytro Bykov           : SCF Hessian
   Vijay G. Chilkuri      : MRCI spin determinant printing, contributions to CSF-ICE
   Dipayan Datta          : RHF DLPNO-CCSD density
   Achintya Kumar Dutta   : EOM-CC, STEOM-CC
   Dmitry Ganyushin       : Spin-Orbit,Spin-Spin,Magnetic field MRCI
   Miquel Garcia          : C-PCM and meta-GGA Hessian, CC/C-PCM, Gaussian charge scheme
   Yang Guo               : DLPNO-NEVPT2, F12-NEVPT2, CIM, IAO-localization
   Andreas Hansen         : Spin unrestricted coupled pair/coupled cluster methods
   Benjamin Helmich-Paris : MC-RPA, TRAH-SCF, COSX integrals
   Lee Huntington         : MR-EOM, pCC
   Robert Izsak           : Overlap fitted RIJCOSX, COSX-SCS-MP3, EOM
   Marcus Kettner         : VPT2
   Christian Kollmar      : KDIIS, OOCD, Brueckner-CCSD(T), CCSD density, CASPT2, CASPT2-K
   Simone Kossmann        : Meta GGA functionals, TD-DFT gradient, OOMP2, MP2 Hessian
   Martin Krupicka        : Initial AUTO-CI
   Lucas Lang             : DCDCAS
   Marvin Lechner         : AUTO-CI (C++ implementation), FIC-MRCC
   Dagmar Lenk            : GEPOL surface, SMD
   Dimitrios Liakos       : Extrapolation schemes; Compound Job, initial MDCI parallelization
   Dimitrios Manganas     : Further ROCIS development; embedding schemes
   Dimitrios Pantazis     : SARC Basis sets
   Anastasios Papadopoulos: AUTO-CI, single reference methods and gradients
   Taras Petrenko         : DFT Hessian,TD-DFT gradient, ASA, ECA, R-Raman, ABS, FL, XAS/XES, NRVS
   Peter Pinski           : DLPNO-MP2, DLPNO-MP2 Gradient
   Christoph Reimann      : Effective Core Potentials
   Marius Retegan         : Local ZFS, SOC
   Christoph Riplinger    : Optimizer, TS searches, QM/MM, DLPNO-CCSD(T), (RO)-DLPNO pert. Triples
   Tobias Risthaus        : Range-separated hybrids, TD-DFT gradient, RPA, STAB
   Michael Roemelt        : Original ROCIS implementation
   Masaaki Saitow         : Open-shell DLPNO-CCSD energy and density
   Barbara Sandhoefer     : DKH picture change effects
   Avijit Sen             : IP-ROCIS
   Kantharuban Sivalingam : CASSCF convergence, NEVPT2, FIC-MRCI
   Bernardo de Souza      : ESD, SOC TD-DFT
   Georgi Stoychev        : AutoAux, RI-MP2 NMR, DLPNO-MP2 response
   Willem Van den Heuvel  : Paramagnetic NMR
   Boris Wezisla          : Elementary symmetry handling
   Frank Wennmohs         : Technical directorship


 We gratefully acknowledge several colleagues who have allowed us to
 interface, adapt or use parts of their codes:
   Stefan Grimme, W. Hujo, H. Kruse, P. Pracht,  : VdW corrections, initial TS optimization,
                  C. Bannwarth, S. Ehlert          DFT functionals, gCP, sTDA/sTD-DF
   Ed Valeev, F. Pavosevic, A. Kumar             : LibInt (2-el integral package), F12 methods
   Garnet Chan, S. Sharma, J. Yang, R. Olivares  : DMRG
   Ulf Ekstrom                                   : XCFun DFT Library
   Mihaly Kallay                                 : mrcc  (arbitrary order and MRCC methods)
   Jiri Pittner, Ondrej Demel                    : Mk-CCSD
   Frank Weinhold                                : gennbo (NPA and NBO analysis)
   Christopher J. Cramer and Donald G. Truhlar   : smd solvation model
   Lars Goerigk                                  : TD-DFT with DH, B97 family of functionals
   V. Asgeirsson, H. Jonsson                     : NEB implementation
   FAccTs GmbH                                   : IRC, NEB, NEB-TS, DLPNO-Multilevel, CI-OPT
                                                   MM, QMMM, 2- and 3-layer-ONIOM, Crystal-QMMM,
                                                   LR-CPCM, SF, NACMEs, symmetry and pop. for TD-DFT,
                                                   nearIR, NL-DFT gradient (VV10), updates on ESD,
                                                   ML-optimized integration grids
   S Lehtola, MJT Oliveira, MAL Marques          : LibXC Library
   Liviu Ungur et al                             : ANISO software


 Your calculation uses the libint2 library for the computation of 2-el integrals
 For citations please refer to: http://libint.valeyev.net

 Your ORCA version has been built with support for libXC version: 5.1.0
 For citations please refer to: https://tddft.org/programs/libxc/

 This ORCA versions uses:
   CBLAS   interface :  Fast vector & matrix operations
   LAPACKE interface :  Fast linear algebra routines
   SCALAPACK package :  Parallel linear algebra routines
   Shared memory     :  Shared parallel matrices
   BLAS/LAPACK       :  OpenBLAS 0.3.15  USE64BITINT DYNAMIC_ARCH NO_AFFINITY Prescott SINGLE_THREADED
        Core in use  :  Prescott
   Copyright (c) 2011-2014, The OpenBLAS Project


================================================================================

----- Orbital basis set information -----
Your calculation utilizes the basis: TZVP 

The basis set includes element-specific modifications.

Your calculation utilizes the basis: CP(PPP) 

----- AuxJ basis set information -----
Your calculation utilizes the auxiliary basis: def2/J
   F. Weigend, Phys. Chem. Chem. Phys. 8, 1057 (2006).

================================================================================
                                        WARNINGS
                       Please study these warnings very carefully!
================================================================================


WARNING: your system is open-shell and RHF/RKS was chosen
  ===> : WILL SWITCH to UHF/UKS


INFO   : the flag for use of the SHARK integral package has been found!

================================================================================
                                       INPUT FILE
================================================================================
NAME = input_108.inp
|  1> ! nofrozencore ReducedPop printbasis
|  2> ! B3LYP TZVP
|  3> 
|  4> %basis
|  5> newgto V "CP(PPP)" end
|  6> end
|  7> 
|  8> %pal
|  9> nprocs 8
| 10> end
| 11> 
| 12> % sym SymThresh 1e-2 end
| 13> * xyz -2 2 
| 14> V 0.823794739868405 0.6215720682109064 0.41711588106803477
| 15> S 1.489856456016172 -1.6317403488883666 1.190352119390142
| 16> S 1.5230152996149706 -0.1459782650596828 -1.8298902865207205
| 17> S -0.8750593330860401 0.5443896576523188 2.216820383615733
| 18> S -0.8900892085268006 1.937249381363737 -0.7731184885908188
| 19> O 1.9553941474641763 1.6332355871319801 0.8863903479018154
| 20> C 0.7851345257950038 1.1174373568765352 -2.8057564092626497
| 21> C -0.1846737111470379 1.950044330447091 -2.3825346822624294
| 22> C 0.5530348334535691 -1.7745438107110332 2.6714784346528324
| 23> C -0.3921709099953065 -0.9076367163530817 3.078635697862163
| 24> S 1.2875495691495875 1.2881646184655495 -4.522251180998156
| 25> S -0.8444174316700385 3.095832262594535 -3.59604032133534
| 26> S -1.2460441641341262 -1.3125054070342 4.605926332335687
| 27> S 0.826892991529521 -3.2075368168752623 3.7199476998230856
| 28> C 0.1590850754111791 2.578262404815254 -4.955544090038115
| 29> C -0.4275676448879758 -2.848464501867782 4.912755016624997
| 30> C 0.07681918170314861 3.1274970206051727 -6.2056259417484405
| 31> C -0.7264162541287363 -3.6667360798421855 5.966806331857867
| 32> S 1.1471573190239626 2.6155836900124694 -7.5354882970796595
| 33> S -1.0854271914287306 4.42363111662885 -6.586704491076105
| 34> S 0.1254002334893849 -5.209002268136968 6.23342392102372
| 35> S -2.016456159567527 -3.268761231536628 7.130757960504713
| 36> C -3.137524315172739 -4.70190370595313 6.7883437961535975
| 37> C -1.316123728699105 -6.353154551240775 6.031114636323934
| 38> C -2.4715154515424804 -6.064675711547007 6.992578936461466
| 39> H -3.5136527796287216 -4.600510574252524 5.767249207591438
| 40> H -3.981556531917438 -4.583438207450722 7.4774554168331555
| 41> H -3.236686288421369 -6.8444825392913655 6.851547687025954
| 42> H -2.1161785973215226 -6.141790467314386 8.017248095470505
| 43> H -0.9165525982217387 -7.358353298896468 6.2077638826129204
| 44> H -1.6504958968493517 -6.296281239507649 4.9921930524206966
| 45> C 0.11490497312163434 5.775565063486195 -7.0105919996082084
| 46> C 2.0353464530995025 4.222311441087148 -7.81885013742103
| 47> C 1.1071596925855134 5.403704907822758 -8.115972860323474
| 48> H 2.585406805320233 4.433568028319957 -6.973961966719988
| 49> H 2.5872922435537147 4.075596616032937 -8.49191705276763
| 50> H 0.30088414053582146 5.057153152546452 -9.367624211952544
| 51> H 1.6201767953969806 6.153113261984216 -8.336855069251541
| 52> H -0.37835194162729097 6.46849160101056 -7.246497431001525
| 53> H 0.6389978966724877 6.012245685246297 -6.156162202912088
| 54> * 
| 55> 
| 56> % eprnmr
| 57> gtensor true
| 58> Nuclei = all H {aiso,adip,aorb,fgrad,rho}
| 59> Nuclei = all V {aiso,adip,aorb,fgrad,rho}
| 60> end
| 61> 
| 62>                          ****END OF INPUT****
================================================================================

------------------------------------------------------------------------------
                            SYMMETRY HANDLING SETUP
------------------------------------------------------------------------------

------------------
SYMMETRY DETECTION
------------------
The point group will now be determined using a tolerance of 1.0000e-02.
Splitting atom subsets according to nuclear charge, mass and basis set.
Splitting atom subsets according to distance from the molecule's center.
Identifying relative distance patterns of the atoms.
Splitting atom subsets according to atoms' relative distance patterns.
Bring atoms of each subset into input order.
The molecule is neither linear nor planar.
There is at least one atom subset not centered around the molecule's center.
The molecule does not have a center of inversion.
Analyzing the first atom subset for its symmetry.
The subset is an off-center atom pair.
Testing point group C2v.
Test failed.
Testing point group C2.
Test failed.
Testing point group Cs.
Test failed.
Testing point group Cs.
Test failed.
No testing is needed for point group C1.
This point group has been found:    C1
Largest non-degenerate subgroup:    C1


Mass-centered symmetry-perfected Cartesians (point group C1):

Atom          Symmetry-perfected Cartesians (x, y, z; au)
  0       1.552829647428    1.173122296953    0.782322506709
  1       2.811503879237   -3.085021065529    2.243527233961
  2       2.874165012556   -0.277337626929   -3.463903771266
  3      -1.657539291953    1.027268678641    4.183271138509
  4      -1.685941640363    3.659392099425   -1.466894487127
  5       3.691242621091    3.084889287392    1.669122730666
  6       1.479772430550    2.110171891848   -5.308023486620
  7      -0.352899539691    3.683571049090   -4.508250328664
  8       1.041167576258   -3.354880499350    5.042450339551
  9      -0.745012419070   -1.716663507460    5.811866060454
 10       2.429199268053    2.432799659846   -8.551728515508
 11      -1.599634490054    5.848796448400   -6.801443648481
 12      -2.358599022473   -2.481754453047    8.698027086512
 13       1.558684494561   -6.062844832825    7.023770110557
 14       0.296710423033    4.870731162025   -9.370533449363
 15      -0.811902554052   -5.384296495188    9.277849269850
 16       0.141250413762    5.908634169137  -11.732845794081
 17      -1.376644581021   -6.930605680731   11.269717586739
 18       2.163896363990    4.941258170014  -14.245921441468
 19      -2.055076931600    8.357972643460  -12.452979887822
 20       0.233055296936   -9.845066402215   11.773551812749
 21      -3.814466704130   -6.178542209245   13.469267398013
 22      -5.932978495684   -8.886788996782   12.822198403014
 23      -2.491030207085  -12.007200872782   11.391242670317
 24      -4.674404140658  -11.462054870329   13.208146885119
 25      -6.643758284678   -8.695183746007   10.892609273803
 26      -7.527968233538   -8.662921648294   14.124430641801
 27      -6.120367468023  -12.935676212128   12.941636447361
 28      -4.002914800892  -11.607780639614   15.144490973522
 29      -1.735950199461  -13.906751216011   11.725061367567
 30      -3.122902031694  -11.899725889277    9.427965402120
 31       0.213222129137   10.912757554171  -13.254011190538
 32       3.842330582518    7.977533591316  -14.781397716518
 33       2.088311804015   10.210043699850  -15.342878290968
 34       4.881794005343    8.376750685173  -13.184790460103
 35       4.885356967247    7.700282752177  -16.053309856326
 36       0.564671822165    9.555155791148  -17.708156560699
 37       3.057773630346   11.626220251688  -15.760285173698
 38      -0.718898353401   12.222198941019  -13.699807849376
 39       1.203614223374   11.360019110504  -11.639372874120


------------------
SYMMETRY REDUCTION
------------------
ORCA supports only abelian point groups.
It is now checked, if the determined point group is supported:
Point Group ( C1    ) is          ... supported

The point group is C1 - hence turning off symmetry
If this is a round-off problem, please increase the symmetry
        detection tolerance (%method SymThresh)

Storing the symmetry object:
Symmetry file                     ... input_108.sym.tmp
Writing symmetry information      ... done

                       ****************************
                       * Single Point Calculation *
                       ****************************

---------------------------------
CARTESIAN COORDINATES (ANGSTROEM)
---------------------------------
  V      0.821722    0.620790    0.413987
  S      1.487784   -1.632523    1.187223
  S      1.520943   -0.146761   -1.833019
  S     -0.877132    0.543607    2.213692
  S     -0.892162    1.936467   -0.776247
  O      1.953321    1.632453    0.883262
  C      0.783062    1.116655   -2.808885
  C     -0.186746    1.949262   -2.385663
  C      0.550962   -1.775326    2.668350
  C     -0.394244   -0.908419    3.075507
  S      1.285477    1.287382   -4.525380
  S     -0.846490    3.095050   -3.599169
  S     -1.248117   -1.313288    4.602798
  S      0.824820   -3.208319    3.716819
  C      0.157012    2.577480   -4.958673
  C     -0.429640   -2.849247    4.909626
  C      0.074746    3.126715   -6.208755
  C     -0.728489   -3.667519    5.963678
  S      1.145085    2.614801   -7.538617
  S     -1.087500    4.422849   -6.589833
  S      0.123328   -5.209785    6.230295
  S     -2.018529   -3.269544    7.127629
  C     -3.139597   -4.702686    6.785215
  C     -1.318196   -6.353937    6.027986
  C     -2.473588   -6.065458    6.989450
  H     -3.515725   -4.601293    5.764121
  H     -3.983629   -4.584221    7.474327
  H     -3.238759   -6.845265    6.848419
  H     -2.118251   -6.142573    8.014119
  H     -0.918625   -7.359136    6.204635
  H     -1.652569   -6.297064    4.989064
  C      0.112832    5.774783   -7.013721
  C      2.033274    4.221529   -7.821979
  C      1.105087    5.402922   -8.119102
  H      2.583334    4.432786   -6.977091
  H      2.585220    4.074814   -8.495046
  H      0.298811    5.056371   -9.370753
  H      1.618104    6.152331   -8.339984
  H     -0.380425    6.467709   -7.249626
  H      0.636925    6.011463   -6.159291

----------------------------
CARTESIAN COORDINATES (A.U.)
----------------------------
  NO LB      ZA    FRAG     MASS         X           Y           Z
   0 V    23.0000    0    50.940    1.552830    1.173122    0.782323
   1 S    16.0000    0    32.060    2.811504   -3.085021    2.243527
   2 S    16.0000    0    32.060    2.874165   -0.277338   -3.463904
   3 S    16.0000    0    32.060   -1.657539    1.027269    4.183271
   4 S    16.0000    0    32.060   -1.685942    3.659392   -1.466894
   5 O     8.0000    0    15.999    3.691243    3.084889    1.669123
   6 C     6.0000    0    12.011    1.479772    2.110172   -5.308023
   7 C     6.0000    0    12.011   -0.352900    3.683571   -4.508250
   8 C     6.0000    0    12.011    1.041168   -3.354880    5.042450
   9 C     6.0000    0    12.011   -0.745012   -1.716664    5.811866
  10 S    16.0000    0    32.060    2.429199    2.432800   -8.551729
  11 S    16.0000    0    32.060   -1.599634    5.848796   -6.801444
  12 S    16.0000    0    32.060   -2.358599   -2.481754    8.698027
  13 S    16.0000    0    32.060    1.558684   -6.062845    7.023770
  14 C     6.0000    0    12.011    0.296710    4.870731   -9.370533
  15 C     6.0000    0    12.011   -0.811903   -5.384296    9.277849
  16 C     6.0000    0    12.011    0.141250    5.908634  -11.732846
  17 C     6.0000    0    12.011   -1.376645   -6.930606   11.269718
  18 S    16.0000    0    32.060    2.163896    4.941258  -14.245921
  19 S    16.0000    0    32.060   -2.055077    8.357973  -12.452980
  20 S    16.0000    0    32.060    0.233055   -9.845066   11.773552
  21 S    16.0000    0    32.060   -3.814467   -6.178542   13.469267
  22 C     6.0000    0    12.011   -5.932978   -8.886789   12.822198
  23 C     6.0000    0    12.011   -2.491030  -12.007201   11.391243
  24 C     6.0000    0    12.011   -4.674404  -11.462055   13.208147
  25 H     1.0000    0     1.008   -6.643758   -8.695184   10.892609
  26 H     1.0000    0     1.008   -7.527968   -8.662922   14.124431
  27 H     1.0000    0     1.008   -6.120367  -12.935676   12.941636
  28 H     1.0000    0     1.008   -4.002915  -11.607781   15.144491
  29 H     1.0000    0     1.008   -1.735950  -13.906751   11.725061
  30 H     1.0000    0     1.008   -3.122902  -11.899726    9.427965
  31 C     6.0000    0    12.011    0.213222   10.912758  -13.254011
  32 C     6.0000    0    12.011    3.842331    7.977534  -14.781398
  33 C     6.0000    0    12.011    2.088312   10.210044  -15.342878
  34 H     1.0000    0     1.008    4.881794    8.376751  -13.184790
  35 H     1.0000    0     1.008    4.885357    7.700283  -16.053310
  36 H     1.0000    0     1.008    0.564672    9.555156  -17.708157
  37 H     1.0000    0     1.008    3.057774   11.626220  -15.760285
  38 H     1.0000    0     1.008   -0.718898   12.222199  -13.699808
  39 H     1.0000    0     1.008    1.203614   11.360019  -11.639373

--------------------------------
INTERNAL COORDINATES (ANGSTROEM)
--------------------------------
 V      0   0   0     0.000000000000     0.00000000     0.00000000
 S      1   0   0     2.473651013992     0.00000000     0.00000000
 S      1   2   0     2.475293845679    85.71227008     0.00000000
 S      1   2   3     2.476085334189    85.93703101   148.62442972
 S      1   2   3     2.466792013046   145.46210879    75.87777380
 O      1   2   3     1.588772740202   107.21321332   255.26625327
 C      3   1   2     1.758693196564    99.34793086   165.57995894
 C      7   3   1     1.346431958579   124.89129161   342.87576796
 C      2   1   3     1.758340906358   101.17628329   202.40113213
 C      9   2   1     1.345629534709   125.22551400     8.19741790
 S      7   3   1     1.796642138834   118.75508029   165.81484816
 S      8   7   3     1.794627453898   116.55477044   183.45612236
 S     10   9   2     1.796005254162   116.48934665   177.93649898
 S      9   2   1     1.796595404221   118.36878237   186.34112047
 C     12   8   7     1.767242579986    97.14876398     0.25670887
 C     13  10   9     1.767262853981    97.08709138   358.18449233
 C     15  12   8     1.367892896547   123.45504659   179.53977362
 C     16  13  10     1.367443981196   123.55162419   182.70663044
 S     17  15  12     1.782193275256   122.03771303   177.81913791
 S     17  15  12     1.782133857905   121.78004175   359.19904309
 S     18  16  13     1.781926278775   121.92270333   179.89086511
 S     18  16  13     1.782517975039   121.86331775     1.33452886
 C     22  18  16     1.851469314203    98.31577256   116.62502723
 C     21  18  16     1.851487193359    98.41360806   243.21711601
 C     23  22  18     1.530499048742   113.64445230    57.68129326
 H     23  22  18     1.092880298899   108.02133367   294.15528312
 H     23  22  18     1.096037993408   105.44657633   178.64370029
 H     25  23  22     1.101578372847   108.11771087   175.14028328
 H     25  23  22     1.087270826864   109.33731347    58.62045805
 H     24  21  18     1.096032192417   105.38480238   181.74830471
 H     24  21  18     1.092884887772   108.05458173    66.24443970
 C     20  17  15     1.856933849605    99.01842572   116.87376580
 C     19  17  15     1.857618888934    98.77389281   243.25482367
 C     32  20  17     1.531246632945   114.00744263    55.68247279
 H     33  19  17     1.030063958075   107.91459679    65.01698075
 H     33  19  17     0.882716527559   105.75465549   181.55252988
 H     34  32  20     1.528662647857   107.71853207    59.40324000
 H     34  32  20     0.934659499115   109.36352025   174.32451272
 H     32  20  17     0.882666949032   105.74311896   178.01381020
 H     32  20  17     1.029923000382   107.87043580   294.52828213

---------------------------
INTERNAL COORDINATES (A.U.)
---------------------------
 V      0   0   0     0.000000000000     0.00000000     0.00000000
 S      1   0   0     4.674522967342     0.00000000     0.00000000
 S      1   2   0     4.677627469315    85.71227008     0.00000000
 S      1   2   3     4.679123165835    85.93703101   148.62442972
 S      1   2   3     4.661561334002   145.46210879    75.87777380
 O      1   2   3     3.002345368021   107.21321332   255.26625327
 C      3   1   2     3.323448495097    99.34793086   165.57995894
 C      7   3   1     2.544387659674   124.89129161   342.87576796
 C      2   1   3     3.322782763088   101.17628329   202.40113213
 C      9   2   1     2.542871298316   125.22551400     8.19741790
 S      7   3   1     3.395161603059   118.75508029   165.81484816
 S      8   7   3     3.391354400284   116.55477044   183.45612236
 S     10   9   2     3.393958065450   116.48934665   177.93649898
 S      9   2   1     3.395073287439   118.36878237   186.34112047
 C     12   8   7     3.339604488379    97.14876398     0.25670887
 C     13  10   9     3.339642800677    97.08709138   358.18449233
 C     15  12   8     2.584942955011   123.45504659   179.53977362
 C     16  13  10     2.584094627940   123.55162419   182.70663044
 S     17  15  12     3.367857207951   122.03771303   177.81913791
 S     17  15  12     3.367744925429   121.78004175   359.19904309
 S     18  16  13     3.367352657722   121.92270333   179.89086511
 S     18  16  13     3.368470801616   121.86331775     1.33452886
 C     22  18  16     3.498769949204    98.31577256   116.62502723
 C     21  18  16     3.498803735910    98.41360806   243.21711601
 C     23  22  18     2.892224050350   113.64445230    57.68129326
 H     23  22  18     2.065244462077   108.02133367   294.15528312
 H     23  22  18     2.071211639914   105.44657633   178.64370029
 H     25  23  22     2.081681439731   108.11771087   175.14028328
 H     25  23  22     2.054644096175   109.33731347    58.62045805
 H     24  21  18     2.071200677629   105.38480238   181.74830471
 H     24  21  18     2.065253133791   108.05458173    66.24443970
 C     20  17  15     3.509096424562    99.01842572   116.87376580
 C     19  17  15     3.510390961285    98.77389281   243.25482367
 C     32  20  17     2.893636779754   114.00744263    55.68247279
 H     33  19  17     1.946538781185   107.91459679    65.01698075
 H     33  19  17     1.668092490972   105.75465549   181.55252988
 H     34  32  20     2.888753755605   107.71853207    59.40324000
 H     34  32  20     1.766250481794   109.36352025   174.32451272
 H     32  20  17     1.667998801135   105.74311896   178.01381020
 H     32  20  17     1.946272409748   107.87043580   294.52828213

---------------------
BASIS SET INFORMATION
---------------------
There are 5 groups of distinct atoms

 Group   1 Type V   : 17s11p5d1f contracted to 17s7p3d1f pattern {11111111111111111/3311111/311/1}
 Group   2 Type S   : 14s9p1d contracted to 5s4p1d pattern {73211/6111/1}
 Group   3 Type O   : 11s6p1d contracted to 5s3p1d pattern {62111/411/1}
 Group   4 Type C   : 11s6p1d contracted to 5s3p1d pattern {62111/411/1}
 Group   5 Type H   : 5s1p contracted to 3s1p pattern {311/1}

Atom   0V    basis set group =>   1
Atom   1S    basis set group =>   2
Atom   2S    basis set group =>   2
Atom   3S    basis set group =>   2
Atom   4S    basis set group =>   2
Atom   5O    basis set group =>   3
Atom   6C    basis set group =>   4
Atom   7C    basis set group =>   4
Atom   8C    basis set group =>   4
Atom   9C    basis set group =>   4
Atom  10S    basis set group =>   2
Atom  11S    basis set group =>   2
Atom  12S    basis set group =>   2
Atom  13S    basis set group =>   2
Atom  14C    basis set group =>   4
Atom  15C    basis set group =>   4
Atom  16C    basis set group =>   4
Atom  17C    basis set group =>   4
Atom  18S    basis set group =>   2
Atom  19S    basis set group =>   2
Atom  20S    basis set group =>   2
Atom  21S    basis set group =>   2
Atom  22C    basis set group =>   4
Atom  23C    basis set group =>   4
Atom  24C    basis set group =>   4
Atom  25H    basis set group =>   5
Atom  26H    basis set group =>   5
Atom  27H    basis set group =>   5
Atom  28H    basis set group =>   5
Atom  29H    basis set group =>   5
Atom  30H    basis set group =>   5
Atom  31C    basis set group =>   4
Atom  32C    basis set group =>   4
Atom  33C    basis set group =>   4
Atom  34H    basis set group =>   5
Atom  35H    basis set group =>   5
Atom  36H    basis set group =>   5
Atom  37H    basis set group =>   5
Atom  38H    basis set group =>   5
Atom  39H    basis set group =>   5

-------------------------
BASIS SET IN INPUT FORMAT
-------------------------

 # Basis set for element : H 
 NewGTO H 
 S 3 
   1      34.0613410000      0.0254393168
   2       5.1235746000      0.1900859340
   3       1.1646626000      0.8524411390
 S 1 
   1       0.3272304100      1.0000000000
 S 1 
   1       0.1030724100      1.0000000000
 P 1 
   1       0.8000000000      1.0000000000
  end;

 # Basis set for element : C 
 NewGTO C 
 S 6 
   1   13575.3496820000      0.0006064601
   2    2035.2333680000      0.0046978985
   3     463.2256235900      0.0243324735
   4     131.2001959800      0.0973999560
   5      42.8530158900      0.3019558443
   6      15.5841857700      0.6623361013
 S 2 
   1       6.2067138500      0.6559530795
   2       2.5764896500      0.3758563390
 S 1 
   1       0.5769633900      1.0000000000
 S 1 
   1       0.2297283100      1.0000000000
 S 1 
   1       0.0951644400      1.0000000000
 P 4 
   1      34.6972322400      0.0113272290
   2       7.9582622800      0.0761696612
   3       2.3780826900      0.3019225154
   4       0.8143320800      0.7278502776
 P 1 
   1       0.2888754700      1.0000000000
 P 1 
   1       0.1005682400      1.0000000000
 D 1 
   1       0.8000000000      1.0000000000
  end;

 # Basis set for element : O 
 NewGTO O 
 S 6 
   1   27032.3826310000      0.0005722654
   2    4052.3871392000      0.0044353333
   3     922.3272271000      0.0230201034
   4     261.2407098900      0.0928224938
   5      85.3546413500      0.2937849971
   6      31.0350352400      0.6740160462
 S 2 
   1      12.2608607300      0.6383993750
   2       4.9987076000      0.3953458663
 S 1 
   1       1.1703108200      1.0000000000
 S 1 
   1       0.4647474100      1.0000000000
 S 1 
   1       0.1850453600      1.0000000000
 P 4 
   1      63.2749548000      0.0120183316
   2      14.6270493800      0.0830054304
   3       4.4501223500      0.3199174388
   4       1.5275799600      0.7071554258
 P 1 
   1       0.5293511800      1.0000000000
 P 1 
   1       0.1747842100      1.0000000000
 D 1 
   1       1.2000000000      1.0000000000
  end;

 # Basis set for element : S 
 NewGTO S 
 S 7 
   1   60700.9281040000      0.0005238013
   2    9102.6106854000      0.0040506304
   3    2071.4166009000      0.0208270003
   4     586.0247682100      0.0814968475
   5     190.5539502100      0.2374911358
   6      67.6303842600      0.4472617145
   7      25.1273069100      0.3489191913
 S 3 
   1     112.5746301000      0.1004556993
   2      34.7955542200      0.4339117282
   3       6.5115556200     -1.2084330582
 S 2 
   1       3.2399032300      0.6749812922
   2       1.5477160900      0.3470879597
 S 1 
   1       0.4054103000      1.0000000000
 S 1 
   1       0.1455065100      1.0000000000
 P 6 
   1     564.3671602700      0.0025564845
   2     133.4262437900      0.0202874255
   3      42.4682711900      0.0927670112
   4      15.6165275800      0.2650208365
   5       6.1093988500      0.4486298663
   6       2.4404160200      0.3596369916
 P 1 
   1       0.8388220100      1.0000000000
 P 1 
   1       0.3128874700      1.0000000000
 P 1 
   1       0.1077010900      1.0000000000
 D 1 
   1       0.5500000000      1.0000000000
  end;

 # Basis set for element : V 
 NewGTO V 
 S 1 
   1  4239814.9912500000      1.0000000000
 S 1 
   1  1695925.9965000001      1.0000000000
 S 1 
   1  678370.3986000001      1.0000000000
 S 1 
   1  271348.1594400000      1.0000000000
 S 1 
   1   40672.0050780000      1.0000000000
 S 1 
   1    9257.0761385000      1.0000000000
 S 1 
   1    2622.7328773000      1.0000000000
 S 1 
   1     858.5948018500      1.0000000000
 S 1 
   1     314.1941865000      1.0000000000
 S 1 
   1     124.4786212700      1.0000000000
 S 1 
   1      50.4693993090      1.0000000000
 S 1 
   1      12.5138469110      1.0000000000
 S 1 
   1       5.3447758082      1.0000000000
 S 1 
   1       1.5755631295      1.0000000000
 S 1 
   1       0.6306903307      1.0000000000
 S 1 
   1       0.0879544416      1.0000000000
 S 1 
   1       0.0342969197      1.0000000000
 P 3 
   1    1450.0319327000     -0.0222847647
   2     343.7504988400     -0.1817959329
   3     110.8252170800     -0.8607412073
 P 3 
   1      41.8224645460     -0.2522537814
   2      17.0880737100     -0.4620379520
   3       7.2613218939     -0.3990010670
 P 1 
   1       2.9458145262      1.0000000000
 P 1 
   1       1.1650209680      1.0000000000
 P 1 
   1       0.4339937839      1.0000000000
 D 3 
   1      27.3603358640      0.0575501019
   2       7.4542765527      0.3023798347
   3       2.4632270217      0.7724212088
 D 1 
   1       0.8249954244      1.0000000000
 D 1 
   1       0.2526297057      1.0000000000
 P 1 
   1       0.1112480000      1.0000000000
 P 1 
   1       0.0363780000      1.0000000000
 F 1 
   1       1.8000000000      1.0000000000
  end;

---------------------------------
AUXILIARY/J BASIS SET INFORMATION
---------------------------------
There are 5 groups of distinct atoms

 Group   1 Type V   : 19s5p5d3f3g contracted to 8s5p5d2f3g pattern {121111111/11111/11111/21/111}
 Group   2 Type S   : 14s5p5d2f1g contracted to 8s4p3d1f1g pattern {71111111/2111/311/2/1}
 Group   3 Type O   : 12s5p4d2f1g contracted to 6s4p3d1f1g pattern {711111/2111/211/2/1}
 Group   4 Type C   : 12s5p4d2f1g contracted to 6s4p3d1f1g pattern {711111/2111/211/2/1}
 Group   5 Type H   : 5s2p1d contracted to 3s1p1d pattern {311/2/1}

Atom   0V    basis set group =>   1
Atom   1S    basis set group =>   2
Atom   2S    basis set group =>   2
Atom   3S    basis set group =>   2
Atom   4S    basis set group =>   2
Atom   5O    basis set group =>   3
Atom   6C    basis set group =>   4
Atom   7C    basis set group =>   4
Atom   8C    basis set group =>   4
Atom   9C    basis set group =>   4
Atom  10S    basis set group =>   2
Atom  11S    basis set group =>   2
Atom  12S    basis set group =>   2
Atom  13S    basis set group =>   2
Atom  14C    basis set group =>   4
Atom  15C    basis set group =>   4
Atom  16C    basis set group =>   4
Atom  17C    basis set group =>   4
Atom  18S    basis set group =>   2
Atom  19S    basis set group =>   2
Atom  20S    basis set group =>   2
Atom  21S    basis set group =>   2
Atom  22C    basis set group =>   4
Atom  23C    basis set group =>   4
Atom  24C    basis set group =>   4
Atom  25H    basis set group =>   5
Atom  26H    basis set group =>   5
Atom  27H    basis set group =>   5
Atom  28H    basis set group =>   5
Atom  29H    basis set group =>   5
Atom  30H    basis set group =>   5
Atom  31C    basis set group =>   4
Atom  32C    basis set group =>   4
Atom  33C    basis set group =>   4
Atom  34H    basis set group =>   5
Atom  35H    basis set group =>   5
Atom  36H    basis set group =>   5
Atom  37H    basis set group =>   5
Atom  38H    basis set group =>   5
Atom  39H    basis set group =>   5

-------------------------------------
AUXILIARY/J BASIS SET IN INPUT FORMAT
-------------------------------------

 # Auxiliary/J basis set for element : H 
 NewAuxJGTO H 
 S 3 
   1      15.6752927000      0.1007184237
   2       3.6063578000      0.3404257499
   3       1.2080016000      0.6491996172
 S 1 
   1       0.4726794000      1.0000000000
 S 1 
   1       0.2018100000      1.0000000000
 P 2 
   1       2.0281365000      0.5596620919
   2       0.5358730000      0.5596620919
 D 1 
   1       2.2165124000      1.0000000000
  end;

 # Auxiliary/J basis set for element : C 
 NewAuxJGTO C 
 S 7 
   1    1861.0916331000      0.0134602335
   2     642.9939764000      0.0299160374
   3     235.1105725000      0.1008649584
   4      90.7028894000      0.2370970548
   5      36.7794552000      0.3924037254
   6      15.6046273000      0.3195862154
   7       6.8907294000      0.0530104441
 S 1 
   1       3.1478850000     -1.0000000000
 S 1 
   1       1.4777287000      1.0000000000
 S 1 
   1       0.7076466000      1.0000000000
 S 1 
   1       0.3430122000      1.0000000000
 S 1 
   1       0.1669453000      1.0000000000
 P 2 
   1      13.5472892000     -0.6769313712
   2       5.4669419000     -0.3779500978
 P 1 
   1       2.1751721000      1.0000000000
 P 1 
   1       0.8582194000      1.0000000000
 P 1 
   1       0.3376720000      1.0000000000
 D 2 
   1       5.9287253000     -0.3533329857
   2       1.9809209000     -0.7456525731
 D 1 
   1       0.8055417000     -1.0000000000
 D 1 
   1       0.3531244000     -1.0000000000
 F 2 
   1       1.6755626000      0.6311076882
   2       0.5997536000      0.4968166032
 G 1 
   1       1.0024600000     -1.0000000000
  end;

 # Auxiliary/J basis set for element : O 
 NewAuxJGTO O 
 S 7 
   1    2876.8216605000      0.0168151159
   2    1004.7443032000      0.0340137548
   3     369.7579954000      0.1194951309
   4     142.9442404000      0.2664627624
   5      57.8366425000      0.4202764046
   6      24.3864983000      0.2765077335
   7      10.6622662000      0.0057008815
 S 1 
   1       4.8070437000     -1.0000000000
 S 1 
   1       2.2210770000      1.0000000000
 S 1 
   1       1.0447795000      1.0000000000
 S 1 
   1       0.4968425000      1.0000000000
 S 1 
   1       0.2371384000      1.0000000000
 P 2 
   1      64.2613382000     -0.2731534179
   2      16.3006076000     -0.8168011598
 P 1 
   1       4.3550542000      1.0000000000
 P 1 
   1       1.2019554000      1.0000000000
 P 1 
   1       0.3354196000      1.0000000000
 D 2 
   1       9.2146611000     -0.4661230638
   2       2.8435251000     -0.6600908911
 D 1 
   1       0.9955759000     -1.0000000000
 D 1 
   1       0.3649441000     -1.0000000000
 F 2 
   1       2.6420115000      0.5931563945
   2       0.7345613000      0.5931563945
 G 1 
   1       1.3931000000     -1.0000000000
  end;

 # Auxiliary/J basis set for element : S 
 NewAuxJGTO S 
 S 7 
   1    7399.0303145000      0.0295137551
   2    2710.1675859000      0.0559686311
   3    1034.3279062000      0.1764696370
   4     410.4645411000      0.3577969368
   5     168.9762502000      0.4299293578
   6      71.9687889000      0.1259148089
   7      31.6172683000     -0.0646025788
 S 1 
   1      14.2796836000      1.0000000000
 S 1 
   1       6.6060948000      1.0000000000
 S 1 
   1       3.1181477000      1.0000000000
 S 1 
   1       1.4954039000     -1.0000000000
 S 1 
   1       0.7254779000      1.0000000000
 S 1 
   1       0.3544216000      1.0000000000
 S 1 
   1       0.1735525000      1.0000000000
 P 2 
   1      12.6998799000      1.4059102813
   2       4.4295784000     -1.2124994202
 P 1 
   1       1.5232889000      1.0000000000
 P 1 
   1       0.5194667000     -1.0000000000
 P 1 
   1       0.1766547000     -1.0000000000
 D 3 
   1      16.8546461000      1.0295742104
   2       5.0810461000     -0.7461553923
   3       1.5102323000      0.8357028005
 D 1 
   1       0.4451331000      1.0000000000
 D 1 
   1       0.1308362000      1.0000000000
 F 2 
   1       1.0809860000      0.5572698934
   2       0.4161474000      0.5572698934
 G 1 
   1       0.6707100000     -1.0000000000
  end;

 # Auxiliary/J basis set for element : V 
 NewAuxJGTO V 
 S 12 
   1   11942.0842430000      0.0459866720
   2    2430.7110193000      0.1744615821
   3     841.0764301000      0.2900402792
   4     494.7508273000      0.1411212903
   5     291.0298903000      0.2660697186
   6     171.1940483000      0.0446365706
   7      59.2366916000     -0.0408204801
   8      34.8451117000      0.1394665381
   9      20.4971240000      0.2164746715
  10      12.0571314000      0.0864266611
  11       7.0924300000     -0.0568501658
  12       4.1720176000     -0.0126212852
 S 1 
   1       2.4541279000      1.0000000000
 S 1 
   1       1.4436046000      1.0000000000
 S 1 
   1       0.8491792000      1.0000000000
 S 1 
   1       0.2938336000      1.0000000000
 S 1 
   1       0.1728433000      1.0000000000
 S 1 
   1       0.1016725000      1.0000000000
 S 1 
   1       0.0598074000      1.0000000000
 P 1 
   1      16.7130979000     -1.0000000000
 P 1 
   1       4.7454037000     -1.0000000000
 P 1 
   1       1.3889998000      1.0000000000
 P 1 
   1       0.4142440000     -1.0000000000
 P 1 
   1       0.1243234000      1.0000000000
 D 1 
   1       7.7143225000      1.0000000000
 D 1 
   1       3.1170731000      1.0000000000
 D 1 
   1       1.2767950000     -1.0000000000
 D 1 
   1       0.5273386000      1.0000000000
 D 1 
   1       0.2184050000      1.0000000000
 F 2 
   1       3.1309344000     -1.0825667766
   2       1.0419780000      0.1809223232
 F 1 
   1       0.3559044000      1.0000000000
 G 1 
   1       8.7130110000      1.0000000000
 G 1 
   1       2.7493872000      1.0000000000
 G 1 
   1       0.8775089000      1.0000000000
  end;



           ************************************************************
           *        Program running with 8 parallel MPI-processes     *
           *              working on a common directory               *
           ************************************************************
------------------------------------------------------------------------------
                           ORCA GTO INTEGRAL CALCULATION
                           -- RI-GTO INTEGRALS CHOSEN --
------------------------------------------------------------------------------
------------------------------------------------------------------------------
                   ___                                                        
                  /   \      - P O W E R E D   B Y -                         
                 /     \                                                     
                 |  |  |   _    _      __       _____    __    __             
                 |  |  |  | |  | |    /  \     |  _  \  |  |  /  |          
                  \  \/   | |  | |   /    \    | | | |  |  | /  /          
                 / \  \   | |__| |  /  /\  \   | |_| |  |  |/  /          
                |  |  |   |  __  | /  /__\  \  |    /   |      \           
                |  |  |   | |  | | |   __   |  |    \   |  |\   \          
                \     /   | |  | | |  |  |  |  | |\  \  |  | \   \       
                 \___/    |_|  |_| |__|  |__|  |_| \__\ |__|  \__/        
                                                                              
                      - O R C A' S   B I G   F R I E N D -                    
                                      &                                       
                       - I N T E G R A L  F E E D E R -                       
                                                                              
 v1 FN, 2020, v2 2021                                                         
------------------------------------------------------------------------------


Reading SHARK input file input_108.SHARKINP.tmp ... ok
----------------------
SHARK INTEGRAL PACKAGE
----------------------

Number of atoms                             ...     40
Number of basis functions                   ...    681
Number of shells                            ...    331
Maximum angular momentum                    ...      3
Integral batch strategy                     ... SHARK/LIBINT Hybrid
RI-J (if used) integral strategy            ... SPLIT-RIJ (Revised 2003 algorithm where possible)
Printlevel                                  ...      1
Contraction scheme used                     ... SEGMENTED contraction
Coulomb Range Separation                    ... NOT USED
Exchange Range Separation                   ... NOT USED
Finite Nucleus Model                        ... NOT USED
Auxiliary Coulomb fitting basis             ... AVAILABLE
   # of basis functions in Aux-J            ...   1568
   # of shells in Aux-J                     ...    512
   Maximum angular momentum in Aux-J        ...      4
Auxiliary J/K fitting basis                 ... NOT available
Auxiliary Correlation fitting basis         ... NOT available
Auxiliary 'external' fitting basis          ... NOT available
Integral threshold                          ...     1.000000e-10
Primitive cut-off                           ...     1.000000e-11
Primitive pair pre-selection threshold      ...     1.000000e-11

Calculating pre-screening integrals         ... done (  0.1 sec) Dimension = 331
Organizing shell pair data                  ... done (  0.1 sec)
Shell pair information
Total number of shell pairs                 ...     54946
Shell pairs after pre-screening             ...     22681
Total number of primitive shell pairs       ...    221635
Primitive shell pairs kept                  ...     55377
          la=0 lb=0:   6415 shell pairs
          la=1 lb=0:   9087 shell pairs
          la=1 lb=1:   3191 shell pairs
          la=2 lb=0:   2131 shell pairs
          la=2 lb=1:   1537 shell pairs
          la=2 lb=2:    196 shell pairs
          la=3 lb=0:     56 shell pairs
          la=3 lb=1:     55 shell pairs
          la=3 lb=2:     12 shell pairs
          la=3 lb=3:      1 shell pairs

Calculating one electron integrals          ... done (  0.0 sec)
Calculating RI/J V-Matrix + Cholesky decomp.... done (  0.1 sec)
Calculating Nuclear repulsion               ... done (  0.0 sec) ENN=   5064.205819654639 Eh

SHARK setup successfully completed in   0.6 seconds

Maximum memory used throughout the entire GTOINT-calculation: 39.7 MB


           ************************************************************
           *        Program running with 8 parallel MPI-processes     *
           *              working on a common directory               *
           ************************************************************
-------------------------------------------------------------------------------
                                 ORCA SCF
-------------------------------------------------------------------------------

------------
SCF SETTINGS
------------
Hamiltonian:
 Density Functional     Method          .... DFT(GTOs)
 Exchange Functional    Exchange        .... B88
   X-Alpha parameter    XAlpha          ....  0.666667
   Becke's b parameter  XBeta           ....  0.004200
 Correlation Functional Correlation     .... LYP
 LDA part of GGA corr.  LDAOpt          .... VWN-5
 Gradients option       PostSCFGGA      .... off
 Hybrid DFT is turned on
   Fraction HF Exchange ScalHFX         ....  0.200000
   Scaling of DF-GGA-X  ScalDFX         ....  0.720000
   Scaling of DF-GGA-C  ScalDFC         ....  0.810000
   Scaling of DF-LDA-C  ScalLDAC        ....  1.000000
   Perturbative correction              ....  0.000000
   Density functional embedding theory  .... OFF
   NL short-range parameter             ....  4.800000
 RI-approximation to the Coulomb term is turned on
   Number of AuxJ basis functions       .... 1568
   RIJ-COSX (HFX calculated with COS-X)).... on


General Settings:
 Integral files         IntName         .... input_108
 Hartree-Fock type      HFTyp           .... UHF
 Total Charge           Charge          ....   -2
 Multiplicity           Mult            ....    2
 Number of Electrons    NEL             ....  321
 Basis Dimension        Dim             ....  681
 Nuclear Repulsion      ENuc            ....   5064.2058196546 Eh

Convergence Acceleration:
 DIIS                   CNVDIIS         .... on
   Start iteration      DIISMaxIt       ....    12
   Startup error        DIISStart       ....  0.200000
   # of expansion vecs  DIISMaxEq       ....     5
   Bias factor          DIISBfac        ....   1.050
   Max. coefficient     DIISMaxC        ....  10.000
 Trust-Rad. Augm. Hess. CNVTRAH         .... auto
   Auto Start mean grad. ratio tolernc. ....  1.125000
   Auto Start start iteration           ....    20
   Auto Start num. interpolation iter.  ....    10
   Max. Number of Micro iterations      ....    16
   Max. Number of Macro iterations      .... Maxiter - #DIIS iter
   Number of Davidson start vectors     ....     2
   Converg. threshold I  (grad. norm)   ....   5.000e-05
   Converg. threshold II (energy diff.) ....   1.000e-06
   Grad. Scal. Fac. for Micro threshold ....   0.100
   Minimum threshold for Micro iter.    ....   0.010
   NR start threshold (gradient norm)   ....   0.001
   Initial trust radius                 ....   0.400
   Minimum AH scaling param. (alpha)    ....   1.000
   Maximum AH scaling param. (alpha)    .... 1000.000
   Orbital update algorithm             .... Taylor
   White noise on init. David. guess    .... on
   Maximum white noise                  ....   0.010
   Quad. conv. algorithm                .... NR
 SOSCF                  CNVSOSCF        .... off
 Level Shifting         CNVShift        .... on
   Level shift para.    LevelShift      ....    0.2500
   Turn off err/grad.   ShiftErr        ....    0.0010
 Zerner damping         CNVZerner       .... off
 Static damping         CNVDamp         .... on
   Fraction old density DampFac         ....    0.7000
   Max. Damping (<1)    DampMax         ....    0.9800
   Min. Damping (>=0)   DampMin         ....    0.0000
   Turn off err/grad.   DampErr         ....    0.1000
 Fernandez-Rico         CNVRico         .... off

SCF Procedure:
 Maximum # iterations   MaxIter         ....   125
 SCF integral mode      SCFMode         .... Direct
   Integral package                     .... SHARK and LIBINT hybrid scheme
 Reset frequency        DirectResetFreq ....    20
 Integral Threshold     Thresh          ....  1.000e-10 Eh
 Primitive CutOff       TCut            ....  1.000e-11 Eh

Convergence Tolerance:
 Convergence Check Mode ConvCheckMode   .... Total+1el-Energy
 Convergence forced     ConvForced      .... 0
 Energy Change          TolE            ....  1.000e-06 Eh
 1-El. energy change                    ....  1.000e-03 Eh
 DIIS Error             TolErr          ....  1.000e-06


Diagonalization of the overlap matrix:
Smallest eigenvalue                        ... 8.641e-05
Time for diagonalization                   ...    0.198 sec
Threshold for overlap eigenvalues          ... 1.000e-08
Number of eigenvalues below threshold      ... 0
Time for construction of square roots      ...    0.160 sec
Total time needed                          ...    0.363 sec

Time for model grid setup =    0.354 sec

------------------------------
INITIAL GUESS: MODEL POTENTIAL
------------------------------
Loading Hartree-Fock densities                     ... done
Calculating cut-offs                               ... done
Initializing the effective Hamiltonian             ... done
Setting up the integral package (SHARK)            ... done
Starting the Coulomb interaction                   ... done (   0.3 sec)
Reading the grid                                   ... done
Mapping shells                                     ... done
Starting the XC term evaluation                    ... done (   0.2 sec)
  promolecular density results
     # of electrons  =    318.991799050
     EX              =   -428.339005498
     EC              =    -12.540793339
     EX+EC           =   -440.879798837
Transforming the Hamiltonian                       ... done (   0.2 sec)
Diagonalizing the Hamiltonian                      ... done (   0.2 sec)
Back transforming the eigenvectors                 ... done (   0.1 sec)
Now organizing SCF variables                       ... done
                      ------------------
                      INITIAL GUESS DONE (   1.3 sec)
                      ------------------
-------------------
DFT GRID GENERATION
-------------------

General Integration Accuracy     IntAcc      ... 4.388
Radial Grid Type                 RadialGrid  ... OptM3 with GC (2021)
Angular Grid (max. ang.)         AngularGrid ... 4 (Lebedev-302)
Angular grid pruning method      GridPruning ... 4 (adaptive)
Weight generation scheme         WeightScheme... Becke
Basis function cutoff            BFCut       ... 1.0000e-10
Integration weight cutoff        WCut        ... 1.0000e-14
Angular grids for H and He will be reduced by one unit
Partially contracted basis set               ... off
Rotationally invariant grid construction     ... off

Total number of grid points                  ...   237290
Total number of batches                      ...     3728
Average number of points per batch           ...       63
Average number of grid points per atom       ...     5932
Time for grid setup =    1.796 sec

--------------------
COSX GRID GENERATION
--------------------

GRIDX 1
-------
General Integration Accuracy     IntAcc      ... 3.816
Radial Grid Type                 RadialGrid  ... OptM3 with GC (2021)
Angular Grid (max. ang.)         AngularGrid ... 1 (Lebedev-50)
Angular grid pruning method      GridPruning ... 4 (adaptive)
Weight generation scheme         WeightScheme... Becke
Basis function cutoff            BFCut       ... 1.0000e-10
Integration weight cutoff        WCut        ... 1.0000e-14
Angular grids for H and He will be reduced by one unit
Partially contracted basis set               ... on
Rotationally invariant grid construction     ... off

Total number of grid points                  ...    29201
Total number of batches                      ...      479
Average number of points per batch           ...       60
Average number of grid points per atom       ...      730
UseSFitting                                  ... on

GRIDX 2
-------
General Integration Accuracy     IntAcc      ... 4.020
Radial Grid Type                 RadialGrid  ... OptM3 with GC (2021)
Angular Grid (max. ang.)         AngularGrid ... 2 (Lebedev-110)
Angular grid pruning method      GridPruning ... 4 (adaptive)
Weight generation scheme         WeightScheme... Becke
Basis function cutoff            BFCut       ... 1.0000e-10
Integration weight cutoff        WCut        ... 1.0000e-14
Angular grids for H and He will be reduced by one unit
Partially contracted basis set               ... on
Rotationally invariant grid construction     ... off

Total number of grid points                  ...    64108
Total number of batches                      ...     1021
Average number of points per batch           ...       62
Average number of grid points per atom       ...     1603
UseSFitting                                  ... on

GRIDX 3
-------
General Integration Accuracy     IntAcc      ... 4.338
Radial Grid Type                 RadialGrid  ... OptM3 with GC (2021)
Angular Grid (max. ang.)         AngularGrid ... 3 (Lebedev-194)
Angular grid pruning method      GridPruning ... 4 (adaptive)
Weight generation scheme         WeightScheme... Becke
Basis function cutoff            BFCut       ... 1.0000e-10
Integration weight cutoff        WCut        ... 1.0000e-14
Angular grids for H and He will be reduced by one unit
Partially contracted basis set               ... on
Rotationally invariant grid construction     ... off

Total number of grid points                  ...   147309
Total number of batches                      ...     2322
Average number of points per batch           ...       63
Average number of grid points per atom       ...     3683
UseSFitting                                  ... on

Time for X-Grid setup             =    1.893 sec

--------------
SCF ITERATIONS
--------------
ITER       Energy         Delta-E        Max-DP      RMS-DP      [F,P]     Damp
               ***  Starting incremental Fock matrix formation  ***
  0  -6336.6661430375   0.000000000000 0.05286648  0.00067110  0.2262097 0.7000
  1  -6337.0299841445  -0.363841106920 0.11849400  0.00063771  0.1558579 0.7000
                               ***Turning on DIIS***
  2  -6337.2079020091  -0.177917864612 0.05445614  0.00033726  0.1090483 0.7000
  3  -6337.3048139909  -0.096911981855 0.04891920  0.00058412  0.0771708 0.0000
  4  -6337.5404191036  -0.235605112725 0.06390634  0.00031431  0.0129600 0.0000
  5  -6337.5462898669  -0.005870763282 0.01568877  0.00008893  0.0098777 0.0000
  6  -6337.5478014551  -0.001511588188 0.00333608  0.00004080  0.0038245 0.0000
  7  -6337.5481997238  -0.000398268697 0.00174236  0.00002255  0.0013724 0.0000
  8  -6337.5483690850  -0.000169361228 0.00264148  0.00001937  0.0012631 0.0000
  9  -6337.5484768798  -0.000107794743 0.00371578  0.00004245  0.0008023 0.0000
               *** Restarting incremental Fock matrix formation ***
                                   *** Resetting DIIS ***
 10  -6337.5485770969  -0.000100217106 0.00125952  0.00001516  0.0006678 0.0000
 11  -6337.5485528062   0.000024290702 0.00044082  0.00000381  0.0019558 0.0000
 12  -6337.5485913058  -0.000038499624 0.00049399  0.00000555  0.0007048 0.0000
 13  -6337.5485989764  -0.000007670595 0.00045534  0.00000427  0.0002349 0.0000
 14  -6337.5486017943  -0.000002817878 0.00035167  0.00000260  0.0001504 0.0000
 15  -6337.5486030067  -0.000001212401 0.00019398  0.00000140  0.0001192 0.0000
 16  -6337.5486032406  -0.000000233896 0.00009285  0.00000091  0.0000417 0.0000
 17  -6337.5486034961  -0.000000255516 0.00016887  0.00000065  0.0000230 0.0000
 18  -6337.5486034906   0.000000005505 0.00008271  0.00000047  0.0000125 0.0000
 19  -6337.5486035416  -0.000000051004 0.00003291  0.00000020  0.0000246 0.0000
 20  -6337.5486035152   0.000000026421 0.00008359  0.00000034  0.0000117 0.0000
                 **** Energy Check signals convergence ****

               *****************************************************
               *                     SUCCESS                       *
               *           SCF CONVERGED AFTER  21 CYCLES          *
               *****************************************************

Old exchange energy                            =    -85.963461545 Eh
New exchange energy                            =    -85.963430202 Eh
Exchange energy change after final integration =      0.000031343 Eh
Total energy after final integration           =  -6337.548572264 Eh
Final COS-X integration done in                =    21.287 sec

----------------
TOTAL SCF ENERGY
----------------

Total Energy       :        -6337.54857226 Eh         -172453.46402 eV

Components:
Nuclear Repulsion  :         5064.20581965 Eh          137804.04618 eV
Electronic Energy  :       -11401.75439192 Eh         -310257.51019 eV
One Electron Energy:       -18898.12416811 Eh         -514244.10228 eV
Two Electron Energy:         7496.36977619 Eh          203986.59209 eV
Max COSX asymmetry :            0.00000127 Eh               0.00003 eV

Virial components:
Potential Energy   :       -12659.69047216 Eh         -344487.69116 eV
Kinetic Energy     :         6322.14189990 Eh          172034.22715 eV
Virial Ratio       :            2.00243694


DFT components:
N(Alpha)           :      160.999808351613 electrons
N(Beta)            :      159.999808099980 electrons
N(Total)           :      320.999616451594 electrons
E(X)               :     -341.602703903663 Eh       
E(C)               :      -14.727102780288 Eh       
E(XC)              :     -356.329806683951 Eh       
DFET-embed. en.    :        0.000000000000 Eh       

---------------
SCF CONVERGENCE
---------------

  Last Energy change         ...   -9.1716e-08  Tolerance :   1.0000e-06
  Last MAX-Density change    ...    0.0000e+00  Tolerance :   1.0000e-05
  Last RMS-Density change    ...    0.0000e+00  Tolerance :   1.0000e-06
  Last DIIS Error            ...    6.4044e-06  Tolerance :   1.0000e-06

             **** THE GBW FILE WAS UPDATED (input_108.gbw) ****
             **** DENSITY input_108.scfp WAS UPDATED ****
             **** ENERGY FILE WAS UPDATED (input_108.en.tmp) ****
----------------------
UHF SPIN CONTAMINATION
----------------------

Warning: in a DFT calculation there is little theoretical justification to 
         calculate <S**2> as in Hartree-Fock theory. We will do it anyways
         but you should keep in mind that the values have only limited relevance

Expectation value of <S**2>     :     0.765663
Ideal value S*(S+1) for S=0.5   :     0.750000
Deviation                       :     0.015663

             **** THE GBW FILE WAS UPDATED (input_108.gbw) ****
             **** DENSITY input_108.scfp WAS UPDATED ****
----------------
ORBITAL ENERGIES
----------------
                 SPIN UP ORBITALS
  NO   OCC          E(Eh)            E(eV) 
   0   1.0000    -196.674947     -5351.7974 
   1   1.0000     -88.733222     -2414.5537 
   2   1.0000     -88.733161     -2414.5521 
   3   1.0000     -88.732723     -2414.5401 
   4   1.0000     -88.732653     -2414.5382 
   5   1.0000     -88.730703     -2414.4852 
   6   1.0000     -88.730514     -2414.4800 
   7   1.0000     -88.730128     -2414.4695 
   8   1.0000     -88.730016     -2414.4665 
   9   1.0000     -88.639938     -2412.0153 
  10   1.0000     -88.639848     -2412.0129 
  11   1.0000     -88.639683     -2412.0084 
  12   1.0000     -88.639409     -2412.0009 
  13   1.0000     -22.050350      -600.0205 
  14   1.0000     -18.890268      -514.0303 
  15   1.0000     -18.556800      -504.9562 
  16   1.0000     -18.551622      -504.8153 
  17   1.0000     -18.551524      -504.8126 
  18   1.0000     -10.076059      -274.1835 
  19   1.0000     -10.075863      -274.1782 
  20   1.0000     -10.065671      -273.9008 
  21   1.0000     -10.063620      -273.8450 
  22   1.0000     -10.063568      -273.8436 
  23   1.0000     -10.050709      -273.4937 
  24   1.0000     -10.048868      -273.4436 
  25   1.0000     -10.048405      -273.4310 
  26   1.0000     -10.038277      -273.1554 
  27   1.0000     -10.038204      -273.1534 
  28   1.0000     -10.018536      -272.6182 
  29   1.0000     -10.017921      -272.6015 
  30   1.0000     -10.017599      -272.5927 
  31   1.0000     -10.017128      -272.5799 
  32   1.0000      -7.786684      -211.8864 
  33   1.0000      -7.786604      -211.8843 
  34   1.0000      -7.786104      -211.8707 
  35   1.0000      -7.786057      -211.8694 
  36   1.0000      -7.783927      -211.8114 
  37   1.0000      -7.783795      -211.8078 
  38   1.0000      -7.783381      -211.7966 
  39   1.0000      -7.783323      -211.7950 
  40   1.0000      -7.694239      -209.3709 
  41   1.0000      -7.694123      -209.3677 
  42   1.0000      -7.693936      -209.3626 
  43   1.0000      -7.693729      -209.3570 
  44   1.0000      -5.751676      -156.5111 
  45   1.0000      -5.751597      -156.5089 
  46   1.0000      -5.751087      -156.4950 
  47   1.0000      -5.751049      -156.4940 
  48   1.0000      -5.748860      -156.4344 
  49   1.0000      -5.748732      -156.4309 
  50   1.0000      -5.748331      -156.4200 
  51   1.0000      -5.748268      -156.4183 
  52   1.0000      -5.748251      -156.4179 
  53   1.0000      -5.748174      -156.4158 
  54   1.0000      -5.747727      -156.4036 
  55   1.0000      -5.747679      -156.4023 
  56   1.0000      -5.744438      -156.3141 
  57   1.0000      -5.744301      -156.3104 
  58   1.0000      -5.743903      -156.2996 
  59   1.0000      -5.743839      -156.2978 
  60   1.0000      -5.741479      -156.2336 
  61   1.0000      -5.741404      -156.2315 
  62   1.0000      -5.740883      -156.2174 
  63   1.0000      -5.740817      -156.2156 
  64   1.0000      -5.739773      -156.1872 
  65   1.0000      -5.739627      -156.1832 
  66   1.0000      -5.739192      -156.1714 
  67   1.0000      -5.739136      -156.1698 
  68   1.0000      -5.659543      -154.0040 
  69   1.0000      -5.659429      -154.0009 
  70   1.0000      -5.659273      -153.9966 
  71   1.0000      -5.659040      -153.9903 
  72   1.0000      -5.652887      -153.8229 
  73   1.0000      -5.652797      -153.8204 
  74   1.0000      -5.652602      -153.8151 
  75   1.0000      -5.652406      -153.8098 
  76   1.0000      -5.651573      -153.7871 
  77   1.0000      -5.651447      -153.7837 
  78   1.0000      -5.651224      -153.7776 
  79   1.0000      -5.651051      -153.7729 
  80   1.0000      -2.444000       -66.5046 
  81   1.0000      -1.485312       -40.4174 
  82   1.0000      -1.473634       -40.0996 
  83   1.0000      -1.472818       -40.0774 
  84   1.0000      -0.712992       -19.4015 
  85   1.0000      -0.709532       -19.3073 
  86   1.0000      -0.691191       -18.8083 
  87   1.0000      -0.685506       -18.6536 
  88   1.0000      -0.649861       -17.6836 
  89   1.0000      -0.636568       -17.3219 
  90   1.0000      -0.635470       -17.2920 
  91   1.0000      -0.631275       -17.1779 
  92   1.0000      -0.616993       -16.7892 
  93   1.0000      -0.575507       -15.6603 
  94   1.0000      -0.574749       -15.6397 
  95   1.0000      -0.574490       -15.6327 
  96   1.0000      -0.572912       -15.5897 
  97   1.0000      -0.513479       -13.9725 
  98   1.0000      -0.504447       -13.7267 
  99   1.0000      -0.496042       -13.4980 
 100   1.0000      -0.495681       -13.4882 
 101   1.0000      -0.481431       -13.1004 
 102   1.0000      -0.477837       -13.0026 
 103   1.0000      -0.461060       -12.5461 
 104   1.0000      -0.446212       -12.1421 
 105   1.0000      -0.417091       -11.3496 
 106   1.0000      -0.411542       -11.1986 
 107   1.0000      -0.366765        -9.9802 
 108   1.0000      -0.355252        -9.6669 
 109   1.0000      -0.338689        -9.2162 
 110   1.0000      -0.326148        -8.8749 
 111   1.0000      -0.320289        -8.7155 
 112   1.0000      -0.316010        -8.5991 
 113   1.0000      -0.312265        -8.4972 
 114   1.0000      -0.310688        -8.4543 
 115   1.0000      -0.303765        -8.2659 
 116   1.0000      -0.292057        -7.9473 
 117   1.0000      -0.264981        -7.2105 
 118   1.0000      -0.263461        -7.1691 
 119   1.0000      -0.256779        -6.9873 
 120   1.0000      -0.256505        -6.9799 
 121   1.0000      -0.242459        -6.5977 
 122   1.0000      -0.234781        -6.3887 
 123   1.0000      -0.230275        -6.2661 
 124   1.0000      -0.228243        -6.2108 
 125   1.0000      -0.220034        -5.9874 
 126   1.0000      -0.216791        -5.8992 
 127   1.0000      -0.212053        -5.7702 
 128   1.0000      -0.194696        -5.2979 
 129   1.0000      -0.191202        -5.2029 
 130   1.0000      -0.187217        -5.0944 
 131   1.0000      -0.184943        -5.0326 
 132   1.0000      -0.179781        -4.8921 
 133   1.0000      -0.174624        -4.7518 
 134   1.0000      -0.159558        -4.3418 
 135   1.0000      -0.152509        -4.1500 
 136   1.0000      -0.147331        -4.0091 
 137   1.0000      -0.136466        -3.7134 
 138   1.0000      -0.134428        -3.6580 
 139   1.0000      -0.133108        -3.6220 
 140   1.0000      -0.125332        -3.4105 
 141   1.0000      -0.121134        -3.2962 
 142   1.0000      -0.113552        -3.0899 
 143   1.0000      -0.109867        -2.9896 
 144   1.0000      -0.099808        -2.7159 
 145   1.0000      -0.098169        -2.6713 
 146   1.0000      -0.097364        -2.6494 
 147   1.0000      -0.094585        -2.5738 
 148   1.0000      -0.074538        -2.0283 
 149   1.0000      -0.067565        -1.8385 
 150   1.0000      -0.067123        -1.8265 
 151   1.0000      -0.052383        -1.4254 
 152   1.0000      -0.045624        -1.2415 
 153   1.0000      -0.037510        -1.0207 
 154   1.0000      -0.037126        -1.0103 
 155   1.0000      -0.031330        -0.8525 
 156   1.0000      -0.024992        -0.6801 
 157   1.0000      -0.019156        -0.5213 
 158   1.0000      -0.015500        -0.4218 
 159   1.0000       0.020339         0.5535 
 160   1.0000       0.041195         1.1210 
 161   0.0000       0.125194         3.4067 
 162   0.0000       0.137352         3.7375 
 163   0.0000       0.154341         4.1998 
 164   0.0000       0.162104         4.4111 
 165   0.0000       0.170200         4.6314 
 166   0.0000       0.171118         4.6563 
 167   0.0000       0.171463         4.6657 
 168   0.0000       0.173872         4.7313 
 169   0.0000       0.174358         4.7445 
 170   0.0000       0.175340         4.7713 
 171   0.0000       0.177612         4.8331 
 172   0.0000       0.183343         4.9890 
 173   0.0000       0.190513         5.1841 
 174   0.0000       0.193496         5.2653 
 175   0.0000       0.198697         5.4068 
 176   0.0000       0.201954         5.4954 
 177   0.0000       0.202998         5.5239 
 178   0.0000       0.208156         5.6642 
 179   0.0000       0.208948         5.6858 
 180   0.0000       0.214579         5.8390 
 181   0.0000       0.215442         5.8625 
 182   0.0000       0.217157         5.9091 
 183   0.0000       0.225597         6.1388 
 184   0.0000       0.228860         6.2276 
 185   0.0000       0.230574         6.2742 
 186   0.0000       0.230787         6.2800 
 187   0.0000       0.237698         6.4681 
 188   0.0000       0.238607         6.4928 
 189   0.0000       0.246355         6.7036 
 190   0.0000       0.248389         6.7590 
 191   0.0000       0.250476         6.8158 
 192   0.0000       0.257429         7.0050 
 193   0.0000       0.262473         7.1422 
 194   0.0000       0.264663         7.2018 
 195   0.0000       0.269497         7.3334 
 196   0.0000       0.272956         7.4275 
 197   0.0000       0.273246         7.4354 
 198   0.0000       0.275539         7.4978 
 199   0.0000       0.276165         7.5148 
 200   0.0000       0.285199         7.7607 
 201   0.0000       0.288260         7.8439 
 202   0.0000       0.301777         8.2118 
 203   0.0000       0.308940         8.4067 
 204   0.0000       0.311339         8.4720 
 205   0.0000       0.323944         8.8150 
 206   0.0000       0.332810         9.0562 
 207   0.0000       0.335734         9.1358 
 208   0.0000       0.342515         9.3203 
 209   0.0000       0.343448         9.3457 
 210   0.0000       0.348320         9.4783 
 211   0.0000       0.349157         9.5010 
 212   0.0000       0.354378         9.6431 
 213   0.0000       0.359753         9.7894 
 214   0.0000       0.360844         9.8191 
 215   0.0000       0.371264        10.1026 
 216   0.0000       0.374022        10.1776 
 217   0.0000       0.378947        10.3117 
 218   0.0000       0.382868        10.4184 
 219   0.0000       0.386713        10.5230 
 220   0.0000       0.388845        10.5810 
 221   0.0000       0.389998        10.6124 
 222   0.0000       0.392296        10.6749 
 223   0.0000       0.396087        10.7781 
 224   0.0000       0.400750        10.9050 
 225   0.0000       0.402736        10.9590 
 226   0.0000       0.403670        10.9844 
 227   0.0000       0.409163        11.1339 
 228   0.0000       0.413168        11.2429 
 229   0.0000       0.417917        11.3721 
 230   0.0000       0.420705        11.4480 
 231   0.0000       0.423282        11.5181 
 232   0.0000       0.427970        11.6457 
 233   0.0000       0.434088        11.8121 
 234   0.0000       0.435915        11.8618 
 235   0.0000       0.440733        11.9930 
 236   0.0000       0.446629        12.1534 
 237   0.0000       0.450616        12.2619 
 238   0.0000       0.455180        12.3861 
 239   0.0000       0.465025        12.6540 
 240   0.0000       0.466147        12.6845 
 241   0.0000       0.469037        12.7632 
 242   0.0000       0.471943        12.8422 
 243   0.0000       0.473225        12.8771 
 244   0.0000       0.474307        12.9065 
 245   0.0000       0.478100        13.0098 
 246   0.0000       0.478490        13.0204 
 247   0.0000       0.481670        13.1069 
 248   0.0000       0.484934        13.1957 
 249   0.0000       0.492616        13.4048 
 250   0.0000       0.494248        13.4492 
 251   0.0000       0.494815        13.4646 
 252   0.0000       0.502477        13.6731 
 253   0.0000       0.507731        13.8161 
 254   0.0000       0.508414        13.8346 
 255   0.0000       0.512659        13.9501 
 256   0.0000       0.515095        14.0164 
 257   0.0000       0.515634        14.0311 
 258   0.0000       0.522364        14.2143 
 259   0.0000       0.524849        14.2819 
 260   0.0000       0.526032        14.3141 
 261   0.0000       0.526485        14.3264 
 262   0.0000       0.527518        14.3545 
 263   0.0000       0.528088        14.3700 
 264   0.0000       0.530743        14.4422 
 265   0.0000       0.534918        14.5558 
 266   0.0000       0.535046        14.5593 
 267   0.0000       0.541830        14.7439 
 268   0.0000       0.545471        14.8430 
 269   0.0000       0.546852        14.8806 
 270   0.0000       0.548246        14.9185 
 271   0.0000       0.552549        15.0356 
 272   0.0000       0.553732        15.0678 
 273   0.0000       0.564399        15.3581 
 274   0.0000       0.571095        15.5403 
 275   0.0000       0.573238        15.5986 
 276   0.0000       0.580381        15.7930 
 277   0.0000       0.580828        15.8051 
 278   0.0000       0.583251        15.8711 
 279   0.0000       0.586627        15.9629 
 280   0.0000       0.594456        16.1760 
 281   0.0000       0.596623        16.2349 
 282   0.0000       0.601675        16.3724 
 283   0.0000       0.605606        16.4794 
 284   0.0000       0.605694        16.4818 
 285   0.0000       0.608417        16.5559 
 286   0.0000       0.616113        16.7653 
 287   0.0000       0.616679        16.7807 
 288   0.0000       0.618351        16.8262 
 289   0.0000       0.618992        16.8436 
 290   0.0000       0.628178        17.0936 
 291   0.0000       0.631920        17.1954 
 292   0.0000       0.633704        17.2440 
 293   0.0000       0.638675        17.3792 
 294   0.0000       0.640673        17.4336 
 295   0.0000       0.644168        17.5287 
 296   0.0000       0.654631        17.8134 
 297   0.0000       0.659060        17.9339 
 298   0.0000       0.668866        18.2008 
 299   0.0000       0.672353        18.2956 
 300   0.0000       0.678199        18.4547 
 301   0.0000       0.686610        18.6836 
 302   0.0000       0.689500        18.7623 
 303   0.0000       0.701782        19.0965 
 304   0.0000       0.713942        19.4274 
 305   0.0000       0.716079        19.4855 
 306   0.0000       0.717474        19.5234 
 307   0.0000       0.733081        19.9481 
 308   0.0000       0.735151        20.0045 
 309   0.0000       0.748652        20.3718 
 310   0.0000       0.761950        20.7337 
 311   0.0000       0.762829        20.7576 
 312   0.0000       0.768623        20.9153 
 313   0.0000       0.772482        21.0203 
 314   0.0000       0.783317        21.3151 
 315   0.0000       0.784454        21.3461 
 316   0.0000       0.798819        21.7370 
 317   0.0000       0.806048        21.9337 
 318   0.0000       0.811339        22.0777 
 319   0.0000       0.814611        22.1667 
 320   0.0000       0.820067        22.3152 
 321   0.0000       0.822951        22.3936 
 322   0.0000       0.827806        22.5257 
 323   0.0000       0.829803        22.5801 
 324   0.0000       0.844634        22.9836 
 325   0.0000       0.849027        23.1032 
 326   0.0000       0.856299        23.3011 
 327   0.0000       0.862710        23.4755 
 328   0.0000       0.868802        23.6413 
 329   0.0000       0.871490        23.7145 
 330   0.0000       0.875622        23.8269 
 331   0.0000       0.875728        23.8298 
 332   0.0000       0.878090        23.8940 
 333   0.0000       0.881419        23.9846 
 334   0.0000       0.886852        24.1325 
 335   0.0000       0.898135        24.4395 
 336   0.0000       0.899702        24.4821 
 337   0.0000       0.903937        24.5974 
 338   0.0000       0.914686        24.8899 
 339   0.0000       0.918548        24.9950 
 340   0.0000       0.927849        25.2480 
 341   0.0000       0.936822        25.4922 
 342   0.0000       0.939578        25.5672 
 343   0.0000       0.941177        25.6107 
 344   0.0000       0.944113        25.6906 
 345   0.0000       0.946303        25.7502 
 346   0.0000       0.951737        25.8981 
 347   0.0000       0.953234        25.9388 
 348   0.0000       0.965849        26.2821 
 349   0.0000       0.974433        26.5157 
 350   0.0000       0.976781        26.5796 
 351   0.0000       0.980172        26.6718 
 352   0.0000       0.989891        26.9363 
 353   0.0000       1.009306        27.4646 
 354   0.0000       1.010680        27.5020 
 355   0.0000       1.015381        27.6299 
 356   0.0000       1.017083        27.6762 
 357   0.0000       1.017165        27.6785 
 358   0.0000       1.020233        27.7620 
 359   0.0000       1.022833        27.8327 
 360   0.0000       1.033270        28.1167 
 361   0.0000       1.034871        28.1603 
 362   0.0000       1.042321        28.3630 
 363   0.0000       1.050611        28.5886 
 364   0.0000       1.060507        28.8579 
 365   0.0000       1.064945        28.9786 
 366   0.0000       1.068851        29.0849 
 367   0.0000       1.071271        29.1508 
 368   0.0000       1.076808        29.3014 
 369   0.0000       1.080676        29.4067 
 370   0.0000       1.086291        29.5595 
 371   0.0000       1.095934        29.8219 
 372   0.0000       1.097046        29.8521 
 373   0.0000       1.102847        30.0100 
 374   0.0000       1.107088        30.1254 
 375   0.0000       1.109715        30.1969 
 376   0.0000       1.113270        30.2936 
 377   0.0000       1.119322        30.4583 
 378   0.0000       1.135274        30.8924 
 379   0.0000       1.142102        31.0782 
 380   0.0000       1.146579        31.2000 
 381   0.0000       1.158702        31.5299 
 382   0.0000       1.161390        31.6030 
 383   0.0000       1.163868        31.6704 
 384   0.0000       1.165657        31.7191 
 385   0.0000       1.199832        32.6491 
 386   0.0000       1.204888        32.7867 
 387   0.0000       1.236073        33.6352 
 388   0.0000       1.238386        33.6982 
 389   0.0000       1.241972        33.7958 
 390   0.0000       1.245247        33.8849 
 391   0.0000       1.255094        34.1528 
 392   0.0000       1.276390        34.7323 
 393   0.0000       1.285989        34.9935 
 394   0.0000       1.298320        35.3291 
 395   0.0000       1.305178        35.5157 
 396   0.0000       1.316389        35.8208 
 397   0.0000       1.320800        35.9408 
 398   0.0000       1.325988        36.0820 
 399   0.0000       1.331143        36.2222 
 400   0.0000       1.336253        36.3613 
 401   0.0000       1.352709        36.8091 
 402   0.0000       1.359568        36.9957 
 403   0.0000       1.392982        37.9050 
 404   0.0000       1.397793        38.0359 
 405   0.0000       1.415123        38.5075 
 406   0.0000       1.419609        38.6295 
 407   0.0000       1.427069        38.8325 
 408   0.0000       1.429349        38.8946 
 409   0.0000       1.441489        39.2249 
 410   0.0000       1.448498        39.4156 
 411   0.0000       1.461870        39.7795 
 412   0.0000       1.468955        39.9723 
 413   0.0000       1.486610        40.4527 
 414   0.0000       1.497513        40.7494 
[...]
Total number of batches                      ...      302
Average number of points per batch           ...       58
Average number of grid points per atom       ...      444

Memory available               ... 821.9 MB
Memory needed per perturbation ...  41.3 MB
Perturbations treated per batch... 3
Number of batches              ... 1
     CP-SCF ITERATION   0:   5.5799e-02 (   4.8 sec   0/  3 done)
     CP-SCF ITERATION   1:   2.1872e-03 (   4.9 sec   0/  3 done)
     CP-SCF ITERATION   2:   1.8513e-04 (   4.9 sec   3/  3 done)
                    *** THE CP-SCF HAS CONVERGED ***

Forming final perturbed densities           ... done
Transforming perturbed density to AO basis  ... done

 Raw HFC matrix (all values in MHz): 
 -----------------------------------
                -0.0806              -0.0198               0.0232
                -0.0201               0.0170              -0.1282
                 0.0234              -0.1278               0.0731

 A(FC)           0.0030               0.0030               0.0030
 A(SD)          -0.0874              -0.0905               0.1779
 A(ORB+DIA)      0.0006               0.0012              -0.0012    A(PC) =   0.0002
 A(ORB)          0.0006               0.0012              -0.0012    A(PC) =   0.0002
 A(DIA)         -0.0000              -0.0000               0.0000    A(PC) =  -0.0000
             ----------           ----------           ----------
 A(Tot)         -0.0839              -0.0864               0.1797    A(iso)=    0.0031
 Orientation: 
  X           0.9064930            0.4058574            0.1164052
  Y          -0.2516054            0.7406517           -0.6230006
  Z          -0.3390651            0.5354575            0.7735115

Notes:  (1) The A matrix conforms to the "SAI" spin Hamiltonian convention.
        (2) Tensor is right-handed.

 Raw EFG matrix (all values in a.u.**-3):
 -----------------------------------
            -0.0234      -0.6178       0.2087
            -0.6178       0.3980      -0.3035
             0.2087      -0.3035      -0.3747

 V(El)       0.7906       1.1260      -1.9165
 V(Nuc)     -1.2531      -1.6065       2.8595
         ----------   ----------   ----------
 V(Tot)     -0.4625      -0.4805       0.9430 
 Orientation: 
  X       0.8082696    0.1839156    0.5593526
  Y       0.4438247    0.4339711   -0.7840209
  Z      -0.3869365    0.8819547    0.2691393

Note: Tensor is right-handed


 Quadrupole tensor eigenvalues (in MHz;Q= 0.0029 I=  1.0)
  e**2qQ            =     0.633200 MHz 
  e**2qQ/(4I*(2I-1))=     0.158300 MHz 
  eta               =     0.019061
  NOTE: the diagonal representation of the SH term I*Q*I = e**2qQ/(4I(2I-1))*[-(1-eta),-(1+eta),2]

 RHO(0)=      0.598919293 a.u.**-3

 -----------------------------------------------------------
 Nucleus  39H : A:ISTP=    1 I=  0.5 P=533.5514 MHz/au**3
                Q:ISTP=    2 I=  1.0 Q=  0.0029 barn     
 -----------------------------------------------------------
 Solving for nuclear perturbation:
Forming RHS of the CP-SCF equations         ... 
Calc. nucleus orbit integrals (SHARK)       ... done

------------------------------------------------------------------------------
                           ORCA CP-SCF CALCULATION
------------------------------------------------------------------------------

Input orbitals are from        ... input_108.gbw
Input Perturbation             ... input_108.pin.tmp
Wavefunction output            ... input_108.pout.tmp
Perturbation mode              ... Imaginary perturbation
Solver                         ... POPLE
Max. number of iterations      ... 64
Convergence tolerance          ... 1.000e-03
Integral handling              ... Direct
DFT GridXC                     ... 1
COSX GridX                     ... 1
COSX IntAccX                   ... 3.067
COSX Algorithm                 ... Auto
Number of perturbations        ... 3
Number of operators            ... 2
Orbital ranges used for CP-SCF:
 Operator 0:  Orbitals   0...160  to 161...680
 Operator 1:  Orbitals   0...159  to 160...680
Variables per perturbation     ... 167080
DFT calculation                         ... on
XC functional terms                     ... off
Hybrid DFT                              ... on
   Exchange mixing (SCF)                ...  0.200
   Exchange mixing (CP-SCF)             ...  0.200
   GGA exch. scaling(SCF)               ...  0.720
   GGA exch. scaling (CP-SCF)           ...  0.720
   GGA corr. scaling (SCF)              ...  0.810
   GGA corr. scaling (CP-SCF)           ...  0.810

CP-SCF GRID
-----------

General Integration Accuracy     IntAcc      ... 3.467
Radial Grid Type                 RadialGrid  ... OptM3 with GC (2021)
Angular Grid (max. ang.)         AngularGrid ... 1 (Lebedev-50)
Angular grid pruning method      GridPruning ... 4 (adaptive)
Weight generation scheme         WeightScheme... Becke
Basis function cutoff            BFCut       ... 1.0000e-10
Integration weight cutoff        WCut        ... 1.0000e-14
Angular grids for H and He will be reduced by one unit
Partially contracted basis set               ... off
Rotationally invariant grid construction     ... off

Total number of grid points                  ...    39357
Total number of batches                      ...      635
Average number of points per batch           ...       61
Average number of grid points per atom       ...      984

CP-SCF GRIDX
------------

General Integration Accuracy     IntAcc      ... 3.067
Radial Grid Type                 RadialGrid  ... OptM3 with GC (2021)
Angular Grid (max. ang.)         AngularGrid ... 1 (Lebedev-50)
Angular grid pruning method      GridPruning ... 4 (adaptive)
Weight generation scheme         WeightScheme... Becke
Basis function cutoff            BFCut       ... 1.0000e-10
Integration weight cutoff        WCut        ... 1.0000e-14
Angular grids for H and He will be reduced by one unit
Partially contracted basis set               ... on
Rotationally invariant grid construction     ... off

Total number of grid points                  ...    17770
Total number of batches                      ...      302
Average number of points per batch           ...       58
Average number of grid points per atom       ...      444

Memory available               ... 819.8 MB
Memory needed per perturbation ...  41.3 MB
Perturbations treated per batch... 3
Number of batches              ... 1
     CP-SCF ITERATION   0:   4.3844e-02 (   4.8 sec   0/  3 done)
     CP-SCF ITERATION   1:   1.8735e-03 (   4.9 sec   0/  3 done)
     CP-SCF ITERATION   2:   1.8733e-04 (   4.9 sec   3/  3 done)
                    *** THE CP-SCF HAS CONVERGED ***

Forming final perturbed densities           ... done
Transforming perturbed density to AO basis  ... done

 Raw HFC matrix (all values in MHz): 
 -----------------------------------
                -0.1380              -0.0003               0.0038
                -0.0003               0.0285              -0.1926
                 0.0039              -0.1923               0.0893

 A(FC)          -0.0070              -0.0070              -0.0070
 A(SD)          -0.1293              -0.1332               0.2625
 A(ORB+DIA)      0.0019               0.0008              -0.0017    A(PC) =   0.0003
 A(ORB)          0.0019               0.0008              -0.0018    A(PC) =   0.0003
 A(DIA)         -0.0000              -0.0001               0.0000    A(PC) =  -0.0000
             ----------           ----------           ----------
 A(Tot)         -0.1345              -0.1395               0.2538    A(iso)=   -0.0067
 Orientation: 
  X          -0.5335101           -0.8457576           -0.0078149
  Y          -0.6457355            0.4013325            0.6495829
  Z          -0.5462532            0.3516054           -0.7602506

Notes:  (1) The A matrix conforms to the "SAI" spin Hamiltonian convention.
        (2) Tensor is right-handed.

 Raw EFG matrix (all values in a.u.**-3):
 -----------------------------------
            -0.0423       0.0716       0.2600
             0.0716      -0.1760       0.1160
             0.2600       0.1160       0.2183

 V(El)       0.7093       0.5139      -1.2232
 V(Nuc)     -0.9121      -0.7216       1.6337
         ----------   ----------   ----------
 V(Tot)     -0.2028      -0.2077       0.4105 
 Orientation: 
  X       0.8519955    0.1110678   -0.5116323
  Y      -0.0089692   -0.9739985   -0.2263767
  Z      -0.5234723    0.1974609   -0.8288462

Note: Tensor is right-handed


 Quadrupole tensor eigenvalues (in MHz;Q= 0.0029 I=  1.0)
  e**2qQ            =     0.275640 MHz 
  e**2qQ/(4I*(2I-1))=     0.068910 MHz 
  eta               =     0.011856
  NOTE: the diagonal representation of the SH term I*Q*I = e**2qQ/(4I(2I-1))*[-(1-eta),-(1+eta),2]

 RHO(0)=      0.477482334 a.u.**-3

 -----------------------------------------------------------
 Nucleus   0V : A:ISTP=   51 I=  3.5 P=140.5173 MHz/au**3
                Q:ISTP=   51 I=  3.5 Q= -0.0430 barn     
 -----------------------------------------------------------
 Solving for nuclear perturbation:
Forming RHS of the CP-SCF equations         ... 
Calc. nucleus orbit integrals (SHARK)       ... done

------------------------------------------------------------------------------
                           ORCA CP-SCF CALCULATION
------------------------------------------------------------------------------

Input orbitals are from        ... input_108.gbw
Input Perturbation             ... input_108.pin.tmp
Wavefunction output            ... input_108.pout.tmp
Perturbation mode              ... Imaginary perturbation
Solver                         ... POPLE
Max. number of iterations      ... 64
Convergence tolerance          ... 1.000e-03
Integral handling              ... Direct
DFT GridXC                     ... 1
COSX GridX                     ... 1
COSX IntAccX                   ... 3.067
COSX Algorithm                 ... Auto
Number of perturbations        ... 3
Number of operators            ... 2
Orbital ranges used for CP-SCF:
 Operator 0:  Orbitals   0...160  to 161...680
 Operator 1:  Orbitals   0...159  to 160...680
Variables per perturbation     ... 167080
DFT calculation                         ... on
XC functional terms                     ... off
Hybrid DFT                              ... on
   Exchange mixing (SCF)                ...  0.200
   Exchange mixing (CP-SCF)             ...  0.200
   GGA exch. scaling(SCF)               ...  0.720
   GGA exch. scaling (CP-SCF)           ...  0.720
   GGA corr. scaling (SCF)              ...  0.810
   GGA corr. scaling (CP-SCF)           ...  0.810

CP-SCF GRID
-----------

General Integration Accuracy     IntAcc      ... 3.467
Radial Grid Type                 RadialGrid  ... OptM3 with GC (2021)
Angular Grid (max. ang.)         AngularGrid ... 1 (Lebedev-50)
Angular grid pruning method      GridPruning ... 4 (adaptive)
Weight generation scheme         WeightScheme... Becke
Basis function cutoff            BFCut       ... 1.0000e-10
Integration weight cutoff        WCut        ... 1.0000e-14
Angular grids for H and He will be reduced by one unit
Partially contracted basis set               ... off
Rotationally invariant grid construction     ... off

Total number of grid points                  ...    39357
Total number of batches                      ...      635
Average number of points per batch           ...       61
Average number of grid points per atom       ...      984

CP-SCF GRIDX
------------

General Integration Accuracy     IntAcc      ... 3.067
Radial Grid Type                 RadialGrid  ... OptM3 with GC (2021)
Angular Grid (max. ang.)         AngularGrid ... 1 (Lebedev-50)
Angular grid pruning method      GridPruning ... 4 (adaptive)
Weight generation scheme         WeightScheme... Becke
Basis function cutoff            BFCut       ... 1.0000e-10
Integration weight cutoff        WCut        ... 1.0000e-14
Angular grids for H and He will be reduced by one unit
Partially contracted basis set               ... on
Rotationally invariant grid construction     ... off

Total number of grid points                  ...    17770
Total number of batches                      ...      302
Average number of points per batch           ...       58
Average number of grid points per atom       ...      444

Memory available               ... 817.7 MB
Memory needed per perturbation ...  41.3 MB
Perturbations treated per batch... 3
Number of batches              ... 1
     CP-SCF ITERATION   0:   1.1232e+01 (   5.1 sec   0/  3 done)
     CP-SCF ITERATION   1:   2.0060e+00 (   4.9 sec   0/  3 done)
     CP-SCF ITERATION   2:   3.3623e-01 (   4.9 sec   0/  3 done)
     CP-SCF ITERATION   3:   4.0389e-02 (   4.9 sec   0/  3 done)
     CP-SCF ITERATION   4:   8.8538e-03 (   5.0 sec   0/  3 done)
     CP-SCF ITERATION   5:   2.2734e-03 (   5.0 sec   0/  3 done)
     CP-SCF ITERATION   6:   3.5924e-04 (   5.0 sec   3/  3 done)
                    *** THE CP-SCF HAS CONVERGED ***

Forming final perturbed densities           ... done
Transforming perturbed density to AO basis  ... done

 Raw HFC matrix (all values in MHz): 
 -----------------------------------
              -239.8788            -136.8088             -66.3887
              -136.5080            -204.8701             -56.3484
               -67.1055             -57.1450            -116.6094

 A(FC)        -175.2189            -175.2189            -175.2189
 A(SD)          98.0225              93.8979            -191.9204
 A(ORB+DIA)     -6.9341              -7.5242             -21.2435    A(PC) = -11.9006
 A(ORB)         -6.9336              -7.5247             -21.2433    A(PC) = -11.9005
 A(DIA)         -0.0004               0.0005              -0.0002    A(PC) =  -0.0000
             ----------           ----------           ----------
 A(Tot)        -84.1304             -88.8451            -388.3828    A(iso)= -187.1194
 Orientation: 
  X           0.6971746            0.0389239            0.7158440
  Y          -0.6671813            0.4006090            0.6279980
  Z          -0.2623294           -0.9154220            0.3052637

Notes:  (1) The A matrix conforms to the "SAI" spin Hamiltonian convention.
        (2) Tensor is right-handed.

 Raw EFG matrix (all values in a.u.**-3):
 -----------------------------------
             0.0772       0.1105       0.0754
             0.1105       0.0276       0.1305
             0.0754       0.1305      -0.1048

 V(El)       0.1873      -0.4750       0.2877
 V(Nuc)     -0.2291       0.2898      -0.0607
         ----------   ----------   ----------
 V(Tot)     -0.0418      -0.1852       0.2270 
 Orientation: 
  X      -0.7453383   -0.0320992    0.6659132
  Y       0.5850657   -0.5103805    0.6302459
  Z       0.3196387    0.8593494    0.3991863

Note: Tensor is right-handed


 Quadrupole tensor eigenvalues (in MHz;Q=-0.0430 I=  3.5)
  e**2qQ            =    -2.293331 MHz 
  e**2qQ/(4I*(2I-1))=    -0.027302 MHz 
  eta               =     0.631584
  NOTE: the diagonal representation of the SH term I*Q*I = e**2qQ/(4I(2I-1))*[-(1-eta),-(1+eta),2]

 RHO(0)=   8115.203053022 a.u.**-3


--------------------------------------------------------------------------------
----------------------------------------------------------------------------
                           ORCA EULER ANGLE PROGRAM
----------------------------------------------------------------------------

Only g-tensor available        -->  using g-tensor as reference tensor

Reference tensor               ...  g

g-tensor ordering              ...  |g_min> --> |gx>
                                    |g_mid> --> |gy>
                                    |g_max> --> |gz>

A- and EFG-tensor ordering     ...  the axes |Ax>, |Qx>, |Ay>, etc. are assigned
                                    such that the Euler rotation is minimal. You
                                    can find the respective eigenvalues as Ax,
                                    EFGx, Ay, etc. in the tables below.
                                    The relation of |Ax>, |Ay>,  etc. to Amin, Amid, etc.
                                    (as printed in the ORCA EPR/NMR CALCULATION Output)
                                    is obtained in the detailed printout.

Euler rotation around          ...  z - y - z
   First rotation              -->  by alpha around z
   Second rotation             -->  by beta around y'
   Third rotation              -->  by gamma around z''
   Positive / Negative angle   -->  clockwise / counterclockwise rotation

Plot EFG-tensors                    (-)
Plot HFC-tensors                    (-)
Detailed Printout                   (-)

-------------------------------------------------------------------------
          Euler rotation of hyperfine tensor to g-tensor
-------------------------------------------------------------------------

-------------------------------------------------------------------
 Atom  |   Alpha    Beta    Gamma   |   Ax       Ay       Az 
       |          [degrees]         |           [MHz]         
-------------------------------------------------------------------
 25H     -154.1     11.4    128.2      -0.13     0.25    -0.13
 26H     -164.1     32.7    146.4      -0.08     0.16    -0.08
 27H       30.7      7.9    -55.1      -0.07     0.13    -0.07
 28H       54.2      5.0    -69.0      -0.07     0.14    -0.07
 29H       24.1     44.5    -37.8      -0.08     0.16    -0.08
 30H       66.1     14.3    -91.9      -0.13     0.25    -0.13
 34H      -33.8      5.3     29.5      -0.13     0.25    -0.14
 35H      -23.6     17.0     23.7      -0.09     0.18    -0.08
 36H      147.8      9.9   -139.1      -0.06     0.14    -0.06
 37H      134.3      8.5   -136.9      -0.07     0.14    -0.07
 38H      139.0     28.8   -140.0      -0.09     0.18    -0.08
 39H      129.0     19.8   -133.9      -0.13     0.25    -0.14
  0V      127.6      1.6   -120.9    -388.38   -88.85   -84.13
-------------------------------------------------------------------


-------------------------------------------------------------------------------
    Euler rotation of Electric Field Gradient (EFG) tensor to g-tensor
-------------------------------------------------------------------------------

-------------------------------------------------------------------
 Atom  |   Alpha    Beta    Gamma  |   EFGx     EFGy     EFGz
       |          [degrees]        |         [a.u.**-3]       
-------------------------------------------------------------------
 25H        6.6     36.2     29.9     -0.15     0.29    -0.14
 26H      141.5     41.0   -110.7     -0.14    -0.15     0.29
 27H      126.7      4.0   -108.9      0.28    -0.14    -0.14
 28H      144.4      3.9   -109.7     -0.15     0.30    -0.14
 29H      -38.4     33.1     69.5     -0.14    -0.15     0.29
 30H      179.1     42.4   -144.1     -0.15     0.29    -0.14
 34H      -88.0     30.3     54.6      0.41    -0.21    -0.20
 35H       54.3     43.1    -93.4     -0.48    -0.46     0.94
 36H       80.0      7.1   -121.3      0.01    -0.01    -0.00
 37H      162.5      7.0   -121.4      0.71    -0.36    -0.35
 38H     -138.6     31.3     97.2     -0.48    -0.46     0.94
 39H       90.9     44.1   -124.3      0.41    -0.21    -0.20
  0V      123.2      7.9   -121.3      0.23    -0.19    -0.04
-------------------------------------------------------------------


Maximum memory used throughout the entire EPRNMR-calculation: 307.9 MB

Timings for individual modules:

Sum of individual times         ...     3750.264 sec (=  62.504 min)
GTO integral calculation        ...        1.486 sec (=   0.025 min)   0.0 %
Spin-Orbit-Coupling Matrices    ...       10.544 sec (=   0.176 min)   0.3 %
SCF iterations                  ...      217.756 sec (=   3.629 min)   5.8 %
EPR/NMR calculation             ...     3520.478 sec (=  58.675 min)  93.9 %
                             ****ORCA TERMINATED NORMALLY****
TOTAL RUN TIME: 0 days 1 hours 2 minutes 31 seconds 492 msec
