
                                 *****************
                                 * O   R   C   A *
                                 *****************

                                            #,                                       
                                            ###                                      
                                            ####                                     
                                            #####                                    
                                            ######                                   
                                           ########,                                 
                                     ,,################,,,,,                         
                               ,,#################################,,                 
                          ,,##########################################,,             
                       ,#########################################, ''#####,          
                    ,#############################################,,   '####,        
                  ,##################################################,,,,####,       
                ,###########''''           ''''###############################       
              ,#####''   ,,,,##########,,,,          '''####'''          '####       
            ,##' ,,,,###########################,,,                        '##       
           ' ,,###''''                  '''############,,,                           
         ,,##''                                '''############,,,,        ,,,,,,###''
      ,#''                                            '''#######################'''  
     '                                                          ''''####''''         
             ,#######,   #######,   ,#######,      ##                                
            ,#'     '#,  ##    ##  ,#'     '#,    #''#        ######   ,####,        
            ##       ##  ##   ,#'  ##            #'  '#       #        #'  '#        
            ##       ##  #######   ##           ,######,      #####,   #    #        
            '#,     ,#'  ##    ##  '#,     ,#' ,#      #,         ##   #,  ,#        
             '#######'   ##     ##  '#######'  #'      '#     #####' # '####'        



                  #######################################################
                  #                        -***-                        #
                  #          Department of theory and spectroscopy      #
                  #    Directorship and core code : Frank Neese         #
                  #        Max Planck Institute fuer Kohlenforschung    #
                  #                Kaiser Wilhelm Platz 1               #
                  #                 D-45470 Muelheim/Ruhr               #
                  #                      Germany                        #
                  #                                                     #
                  #                  All rights reserved                #
                  #                        -***-                        #
                  #######################################################


                         Program Version 5.0.4 -  RELEASE  -


 With contributions from (in alphabetic order):
   Daniel Aravena         : Magnetic Suceptibility
   Michael Atanasov       : Ab Initio Ligand Field Theory (pilot matlab implementation)
   Alexander A. Auer      : GIAO ZORA, VPT2 properties, NMR spectrum
   Ute Becker             : Parallelization
   Giovanni Bistoni       : ED, misc. LED, open-shell LED, HFLD
   Martin Brehm           : Molecular dynamics
   Dmytro Bykov           : SCF Hessian
   Vijay G. Chilkuri      : MRCI spin determinant printing, contributions to CSF-ICE
   Dipayan Datta          : RHF DLPNO-CCSD density
   Achintya Kumar Dutta   : EOM-CC, STEOM-CC
   Dmitry Ganyushin       : Spin-Orbit,Spin-Spin,Magnetic field MRCI
   Miquel Garcia          : C-PCM and meta-GGA Hessian, CC/C-PCM, Gaussian charge scheme
   Yang Guo               : DLPNO-NEVPT2, F12-NEVPT2, CIM, IAO-localization
   Andreas Hansen         : Spin unrestricted coupled pair/coupled cluster methods
   Benjamin Helmich-Paris : MC-RPA, TRAH-SCF, COSX integrals
   Lee Huntington         : MR-EOM, pCC
   Robert Izsak           : Overlap fitted RIJCOSX, COSX-SCS-MP3, EOM
   Marcus Kettner         : VPT2
   Christian Kollmar      : KDIIS, OOCD, Brueckner-CCSD(T), CCSD density, CASPT2, CASPT2-K
   Simone Kossmann        : Meta GGA functionals, TD-DFT gradient, OOMP2, MP2 Hessian
   Martin Krupicka        : Initial AUTO-CI
   Lucas Lang             : DCDCAS
   Marvin Lechner         : AUTO-CI (C++ implementation), FIC-MRCC
   Dagmar Lenk            : GEPOL surface, SMD
   Dimitrios Liakos       : Extrapolation schemes; Compound Job, initial MDCI parallelization
   Dimitrios Manganas     : Further ROCIS development; embedding schemes
   Dimitrios Pantazis     : SARC Basis sets
   Anastasios Papadopoulos: AUTO-CI, single reference methods and gradients
   Taras Petrenko         : DFT Hessian,TD-DFT gradient, ASA, ECA, R-Raman, ABS, FL, XAS/XES, NRVS
   Peter Pinski           : DLPNO-MP2, DLPNO-MP2 Gradient
   Christoph Reimann      : Effective Core Potentials
   Marius Retegan         : Local ZFS, SOC
   Christoph Riplinger    : Optimizer, TS searches, QM/MM, DLPNO-CCSD(T), (RO)-DLPNO pert. Triples
   Tobias Risthaus        : Range-separated hybrids, TD-DFT gradient, RPA, STAB
   Michael Roemelt        : Original ROCIS implementation
   Masaaki Saitow         : Open-shell DLPNO-CCSD energy and density
   Barbara Sandhoefer     : DKH picture change effects
   Avijit Sen             : IP-ROCIS
   Kantharuban Sivalingam : CASSCF convergence, NEVPT2, FIC-MRCI
   Bernardo de Souza      : ESD, SOC TD-DFT
   Georgi Stoychev        : AutoAux, RI-MP2 NMR, DLPNO-MP2 response
   Willem Van den Heuvel  : Paramagnetic NMR
   Boris Wezisla          : Elementary symmetry handling
   Frank Wennmohs         : Technical directorship


 We gratefully acknowledge several colleagues who have allowed us to
 interface, adapt or use parts of their codes:
   Stefan Grimme, W. Hujo, H. Kruse, P. Pracht,  : VdW corrections, initial TS optimization,
                  C. Bannwarth, S. Ehlert          DFT functionals, gCP, sTDA/sTD-DF
   Ed Valeev, F. Pavosevic, A. Kumar             : LibInt (2-el integral package), F12 methods
   Garnet Chan, S. Sharma, J. Yang, R. Olivares  : DMRG
   Ulf Ekstrom                                   : XCFun DFT Library
   Mihaly Kallay                                 : mrcc  (arbitrary order and MRCC methods)
   Jiri Pittner, Ondrej Demel                    : Mk-CCSD
   Frank Weinhold                                : gennbo (NPA and NBO analysis)
   Christopher J. Cramer and Donald G. Truhlar   : smd solvation model
   Lars Goerigk                                  : TD-DFT with DH, B97 family of functionals
   V. Asgeirsson, H. Jonsson                     : NEB implementation
   FAccTs GmbH                                   : IRC, NEB, NEB-TS, DLPNO-Multilevel, CI-OPT
                                                   MM, QMMM, 2- and 3-layer-ONIOM, Crystal-QMMM,
                                                   LR-CPCM, SF, NACMEs, symmetry and pop. for TD-DFT,
                                                   nearIR, NL-DFT gradient (VV10), updates on ESD,
                                                   ML-optimized integration grids
   S Lehtola, MJT Oliveira, MAL Marques          : LibXC Library
   Liviu Ungur et al                             : ANISO software


 Your calculation uses the libint2 library for the computation of 2-el integrals
 For citations please refer to: http://libint.valeyev.net

 Your ORCA version has been built with support for libXC version: 5.1.0
 For citations please refer to: https://tddft.org/programs/libxc/

 This ORCA versions uses:
   CBLAS   interface :  Fast vector & matrix operations
   LAPACKE interface :  Fast linear algebra routines
   SCALAPACK package :  Parallel linear algebra routines
   Shared memory     :  Shared parallel matrices
   BLAS/LAPACK       :  OpenBLAS 0.3.15  USE64BITINT DYNAMIC_ARCH NO_AFFINITY Prescott SINGLE_THREADED
        Core in use  :  Prescott
   Copyright (c) 2011-2014, The OpenBLAS Project


================================================================================

----- Orbital basis set information -----
Your calculation utilizes the basis: TZVP 

The basis set includes element-specific modifications.

Your calculation utilizes the basis: CP(PPP) 

----- AuxJ basis set information -----
Your calculation utilizes the auxiliary basis: def2/J
   F. Weigend, Phys. Chem. Chem. Phys. 8, 1057 (2006).

================================================================================
                                        WARNINGS
                       Please study these warnings very carefully!
================================================================================


WARNING: your system is open-shell and RHF/RKS was chosen
  ===> : WILL SWITCH to UHF/UKS


INFO   : the flag for use of the SHARK integral package has been found!

================================================================================
                                       INPUT FILE
================================================================================
NAME = input_101.inp
|  1> ! nofrozencore ReducedPop printbasis
|  2> ! B3LYP TZVP
|  3> 
|  4> %basis
|  5> newgto V "CP(PPP)" end
|  6> end
|  7> 
|  8> %pal
|  9> nprocs 8
| 10> end
| 11> 
| 12> % sym SymThresh 1e-2 end
| 13> * xyz -2 2 
| 14> V 0.24537479683358912 0.5596847966629103 0.9298306963804065
| 15> S 2.486219177007498 -0.23781060731704004 0.2516711731022432
| 16> S 0.44735244997804474 2.1323947753156847 -0.9709148674724328
| 17> S -0.1803627066059933 -1.757907741614148 1.6893769618083485
| 18> S -2.1660635235747576 0.5314711867076921 0.4107740183475863
| 19> O 0.43841883744284404 1.4495176536922108 2.233837781604764
| 20> C -1.284522974414133 2.623066749662393 -1.0622237436900182
| 21> C -2.2272777722904777 2.043344255371454 -0.5660482072069866
| 22> C 2.24321864362136 -2.0156337628413503 1.1041340081364959
| 23> C 1.699061077421914 -2.3261955590572465 1.3958193669892351
| 24> S -1.6180604837078645 4.107150450505004 -2.0730031174944274
| 25> S -3.906273441402639 2.6858274190843874 -0.8788224844869901
| 26> S 1.690789322878047 -4.143585368479928 2.1317581658742757
| 27> S 4.020180281565581 -2.8171463228601765 0.8915629835831439
| 28> C -3.3579521289492686 4.012235540856526 -1.8837873260139573
| 29> C 3.296352664114017 -4.17263038202459 1.5999232159759276
| 30> C -4.251120183390011 4.940296883523672 -2.4816119636481004
| 31> C 4.174319504372569 -5.546159876940572 1.782531358927605
| 32> S -3.657303143768561 6.300380070608976 -3.4441248252494905
| 33> S -6.000560570482632 4.795176086329223 -2.263418524872167
| 34> S 5.800919579403481 -5.548881742520801 1.2374821398673475
| 35> S 3.4090545417906655 -6.909787088531028 2.489864999329751
| 36> C 3.560165481047141 -8.019041930514257 1.014658605597746
| 37> C 5.58985128774554 -6.869830260624583 -0.04322161743057719
| 38> C 4.98693861534004 -8.16464633713753 0.49378130163269335
| 39> H 2.8797230076997615 -7.658814180909216 0.23826328890438178
| 40> H 3.1521445645469677 -8.978959046710408 1.3436074996558112
| 41> H 4.983379345127706 -8.904623259466783 -0.3177789804608065
| 42> H 5.625075330491861 -8.55921920122089 1.290789837433471
| 43> H 6.5941837756102615 -7.031018238532859 -0.4448876450944819
| 44> H 5.001768371599486 -6.46174899946845 -0.8697012119943954
| 45> C -6.290789148995118 6.3943384657365 -1.3770580512864599
| 46> C -4.2959088557082215 7.670938325682107 -2.374776705423709
| 47> C -5.807696002652199 7.622805947911728 -2.1488400612086633
| 48> H -3.75615672229017 7.642084988515519 -1.4253403547076564
| 49> H -4.013516935048652 8.592948439617551 -2.889550772764857
| 50> H -6.320192406720764 7.6695339899798505 -3.114965340509578
| 51> H -6.09762965115581 8.518566259641554 -1.58199253791508
| 52> H -7.370852859234264 6.441671346657939 -1.2156235716294592
| 53> H -5.810866024920933 6.332030590635333 -0.39756495454700275
| 54> * 
| 55> 
| 56> % eprnmr
| 57> gtensor true
| 58> Nuclei = all H {aiso,adip,aorb,fgrad,rho}
| 59> Nuclei = all V {aiso,adip,aorb,fgrad,rho}
| 60> end
| 61> 
| 62>                          ****END OF INPUT****
================================================================================

------------------------------------------------------------------------------
                            SYMMETRY HANDLING SETUP
------------------------------------------------------------------------------

------------------
SYMMETRY DETECTION
------------------
The point group will now be determined using a tolerance of 1.0000e-02.
Splitting atom subsets according to nuclear charge, mass and basis set.
Splitting atom subsets according to distance from the molecule's center.
Identifying relative distance patterns of the atoms.
Splitting atom subsets according to atoms' relative distance patterns.
Bring atoms of each subset into input order.
The molecule is neither linear nor planar.
There is at least one atom subset not centered around the molecule's center.
The molecule does not have a center of inversion.
Analyzing the first atom subset for its symmetry.
The subset consists of a single off-center atom.
No testing is needed for point group C1.
This point group has been found:    C1
Largest non-degenerate subgroup:    C1


Mass-centered symmetry-perfected Cartesians (point group C1):

Atom          Symmetry-perfected Cartesians (x, y, z; au)
  0       0.460157001353    1.057888851979    1.750805786406
  1       4.694739188618   -0.449159054604    0.469270012300
  2       0.841839450968    4.029879999718   -1.841082779542
  3      -0.344370285088   -3.321726335384    3.186140214108
  4      -4.096801013062    1.004572855915    0.769930816941
  5       0.824957369890    2.739429256729    4.215022054173
  6      -2.430930799202    4.957115652824   -2.013631549189
  7      -4.212479178629    3.861598904940   -1.075995670884
  8       4.235534730121   -3.808757933088    2.080191309861
  9       3.207225956303   -4.395634675595    2.631396755367
 10      -3.061225347158    7.761627407233   -3.923727747496
 11      -7.385321173291    5.075716130013   -1.667053396679
 12       3.191594605568   -7.830003693983    4.022119536586
 13       7.593505576320   -5.323397164422    1.678490289448
 14      -6.349144059361    7.582264221971   -3.566161721384
 15       6.225669611168   -7.884890815139    3.017097132831
 16      -8.036987073822    9.336045995091   -4.695886562624
 17       7.884786493921  -10.480485397393    3.362176512833
 18      -6.914835495281   11.906230738033   -6.514772271427
 19     -11.342950293048    9.061807432057   -4.283560719119
 20      10.958615165145  -10.485628977913    2.332182759302
 21       6.438645294755  -13.057367376062    4.698843378503
 22       6.724203585790  -15.153555240136    1.911107303340
 23      10.559753898357  -12.981859914138   -0.087996600675
 24       9.420414064840  -15.428707692546    0.926791849471
 25       5.438353661275  -14.472823447544    0.443932783130
 26       5.953155796693  -16.967535701010    2.532730625166
 27       9.413688018902  -16.827061421170   -0.606834824854
 28      10.626317692477  -16.174342345541    2.432919708532
 29      12.457667247821  -13.286461048466   -0.847035390260
 30       9.448438242803  -12.210698090168   -1.649816689675
 31     -11.891402822674   12.083786372807   -2.608582168109
 32      -8.121625398405   14.496210490707   -4.493997183133
 33     -10.978489078911   14.405253478546   -4.067038801949
 34      -7.101641686045   14.441685585412   -2.699822498690
 35      -7.587982005926   16.238557098750   -5.466779191252
 36     -11.946966927220   14.493556680829   -5.892750990886
 37     -11.526384271592   16.097995149351   -2.995852223233
 38     -13.932427442213   12.173232554878   -2.303515212985
 39     -10.984479552838   11.966041552879   -0.757608465205


------------------
SYMMETRY REDUCTION
------------------
ORCA supports only abelian point groups.
It is now checked, if the determined point group is supported:
Point Group ( C1    ) is          ... supported

The point group is C1 - hence turning off symmetry
If this is a round-off problem, please increase the symmetry
        detection tolerance (%method SymThresh)

Storing the symmetry object:
Symmetry file                     ... input_101.sym.tmp
Writing symmetry information      ... done

                       ****************************
                       * Single Point Calculation *
                       ****************************

---------------------------------
CARTESIAN COORDINATES (ANGSTROEM)
---------------------------------
  V      0.243505    0.559811    0.926487
  S      2.484349   -0.237685    0.248327
  S      0.445482    2.132521   -0.974259
  S     -0.182233   -1.757782    1.686033
  S     -2.167934    0.531597    0.407430
  O      0.436549    1.449644    2.230494
  C     -1.286393    2.623193   -1.065568
  C     -2.229148    2.043470   -0.569392
  C      2.241348   -2.015508    1.100790
  C      1.697191   -2.326070    1.392475
  S     -1.619931    4.107276   -2.076347
  S     -3.908144    2.685953   -0.882167
  S      1.688919   -4.143459    2.128414
  S      4.018310   -2.817020    0.888219
  C     -3.359822    4.012361   -1.887132
  C      3.294482   -4.172505    1.596579
  C     -4.252990    4.940423   -2.484956
  C      4.172449   -5.546034    1.779187
  S     -3.659173    6.300506   -3.447469
  S     -6.002431    4.795302   -2.266763
  S      5.799049   -5.548756    1.234138
  S      3.407184   -6.909661    2.486521
  C      3.558295   -8.018916    1.011314
  C      5.587981   -6.869704   -0.046566
  C      4.985068   -8.164520    0.490437
  H      2.877853   -7.658688    0.234919
  H      3.150274   -8.978833    1.340263
  H      4.981509   -8.904497   -0.321123
  H      5.623205   -8.559093    1.287446
  H      6.592314   -7.030892   -0.448232
  H      4.999898   -6.461623   -0.873045
  C     -6.292659    6.394464   -1.380402
  C     -4.297779    7.671064   -2.378121
  C     -5.809566    7.622932   -2.152184
  H     -3.758027    7.642211   -1.428685
  H     -4.015387    8.593074   -2.892895
  H     -6.322063    7.669660   -3.118310
  H     -6.099500    8.518692   -1.585337
  H     -7.372723    6.441797   -1.218968
  H     -5.812736    6.332156   -0.400909

----------------------------
CARTESIAN COORDINATES (A.U.)
----------------------------
  NO LB      ZA    FRAG     MASS         X           Y           Z
   0 V    23.0000    0    50.940    0.460157    1.057889    1.750806
   1 S    16.0000    0    32.060    4.694739   -0.449159    0.469270
   2 S    16.0000    0    32.060    0.841839    4.029880   -1.841083
   3 S    16.0000    0    32.060   -0.344370   -3.321726    3.186140
   4 S    16.0000    0    32.060   -4.096801    1.004573    0.769931
   5 O     8.0000    0    15.999    0.824957    2.739429    4.215022
   6 C     6.0000    0    12.011   -2.430931    4.957116   -2.013632
   7 C     6.0000    0    12.011   -4.212479    3.861599   -1.075996
   8 C     6.0000    0    12.011    4.235535   -3.808758    2.080191
   9 C     6.0000    0    12.011    3.207226   -4.395635    2.631397
  10 S    16.0000    0    32.060   -3.061225    7.761627   -3.923728
  11 S    16.0000    0    32.060   -7.385321    5.075716   -1.667053
  12 S    16.0000    0    32.060    3.191595   -7.830004    4.022120
  13 S    16.0000    0    32.060    7.593506   -5.323397    1.678490
  14 C     6.0000    0    12.011   -6.349144    7.582264   -3.566162
  15 C     6.0000    0    12.011    6.225670   -7.884891    3.017097
  16 C     6.0000    0    12.011   -8.036987    9.336046   -4.695887
  17 C     6.0000    0    12.011    7.884786  -10.480485    3.362177
  18 S    16.0000    0    32.060   -6.914835   11.906231   -6.514772
  19 S    16.0000    0    32.060  -11.342950    9.061807   -4.283561
  20 S    16.0000    0    32.060   10.958615  -10.485629    2.332183
  21 S    16.0000    0    32.060    6.438645  -13.057367    4.698843
  22 C     6.0000    0    12.011    6.724204  -15.153555    1.911107
  23 C     6.0000    0    12.011   10.559754  -12.981860   -0.087997
  24 C     6.0000    0    12.011    9.420414  -15.428708    0.926792
  25 H     1.0000    0     1.008    5.438354  -14.472823    0.443933
  26 H     1.0000    0     1.008    5.953156  -16.967536    2.532731
  27 H     1.0000    0     1.008    9.413688  -16.827061   -0.606835
  28 H     1.0000    0     1.008   10.626318  -16.174342    2.432920
  29 H     1.0000    0     1.008   12.457667  -13.286461   -0.847035
  30 H     1.0000    0     1.008    9.448438  -12.210698   -1.649817
  31 C     6.0000    0    12.011  -11.891403   12.083786   -2.608582
  32 C     6.0000    0    12.011   -8.121625   14.496210   -4.493997
  33 C     6.0000    0    12.011  -10.978489   14.405253   -4.067039
  34 H     1.0000    0     1.008   -7.101642   14.441686   -2.699822
  35 H     1.0000    0     1.008   -7.587982   16.238557   -5.466779
  36 H     1.0000    0     1.008  -11.946967   14.493557   -5.892751
  37 H     1.0000    0     1.008  -11.526384   16.097995   -2.995852
  38 H     1.0000    0     1.008  -13.932427   12.173233   -2.303515
  39 H     1.0000    0     1.008  -10.984480   11.966042   -0.757608

--------------------------------
INTERNAL COORDINATES (ANGSTROEM)
--------------------------------
 V      0   0   0     0.000000000000     0.00000000     0.00000000
 S      1   0   0     2.473314131795     0.00000000     0.00000000
 S      1   2   0     2.475286922324    85.43389911     0.00000000
 S      1   2   3     2.475762130060    86.44990575   148.61195087
 S      1   2   3     2.466830074393   145.51588991    75.62018119
 O      1   2   3     1.590441131692   107.17203380   255.36028128
 C      3   1   2     1.802356452786    97.66993925   165.19140165
 C      7   3   1     1.212870538149   126.58735166   342.95308768
 C      2   1   3     1.986554131319    93.44415018   203.44435381
 C      9   2   1     0.691112461680   132.81015543     8.08024879
 S      7   3   1     1.826315045035   115.13483432   165.77545664
 S      8   7   3     1.824729793991   118.47641145   183.48628802
 S     10   9   2     1.960760071253   125.32680831   177.86932486
 S      9   2   1     1.960918531473   102.03040846   186.49138788
 C     12   8   7     1.752132728962    94.41095054     0.25971941
 C     13  10   9     1.691604466022    83.90985407   358.39794382
 C     15  12   8     1.420014551541   122.64229635   179.65396356
 C     16  13  10     1.640352029252   119.16883060   182.62878584
 S     17  15  12     1.768862900590   121.36254980   177.83548282
 S     17  15  12     1.768957345584   121.09782769   359.04818219
 S     18  16  13     1.715492309467   118.25883401   180.10459021
 S     18  16  13     1.716225659402   118.19857221     0.90312991
 C     22  18  16     1.851894901050    96.38600956   117.46816870
 C     21  18  16     1.851933293934    96.47593704   242.37071583
 C     23  22  18     1.525842516695   113.91566728    54.54950598
 H     23  22  18     1.093414687529   108.51282839   289.35010836
 H     23  22  18     1.093676969297   104.81449492   176.78723840
 H     25  23  22     1.098275286736   108.27126284   175.07253388
 H     25  23  22     1.094590708180   109.32791705    58.50062041
 H     24  21  18     1.093618264378   104.74140207   183.61761904
 H     24  21  18     1.093361949310   108.53156535    71.02900300
 C     20  17  15     1.851266548240    98.23501958   117.21859970
 C     19  17  15     1.851959121376    97.99443865   242.90891489
 C     32  20  17     1.529103925064   113.75326452    56.62638374
 H     33  19  17     1.092517397873   108.17309985    66.79638131
 H     33  19  17     1.093087456455   105.26146185   181.70144561
 H     34  32  20     1.094638812304   109.38119158    58.90115896
 H     34  32  20     1.098983244308   108.12818016   175.41256595
 H     32  20  17     1.093086964067   105.24937556   177.85795519
 H     32  20  17     1.092526980390   108.12667134   292.75012536

---------------------------
INTERNAL COORDINATES (A.U.)
---------------------------
 V      0   0   0     0.000000000000     0.00000000     0.00000000
 S      1   0   0     4.673886352251     0.00000000     0.00000000
 S      1   2   0     4.677614386070    85.43389911     0.00000000
 S      1   2   3     4.678512398546    86.44990575   148.61195087
 S      1   2   3     4.661633259524   145.51588991    75.62018119
 O      1   2   3     3.005498171022   107.17203380   255.36028128
 C      3   1   2     3.405960091471    97.66993925   165.19140165
 C      7   3   1     2.291993153003   126.58735166   342.95308768
 C      2   1   3     3.754043258402    93.44415018   203.44435381
 C      9   2   1     1.306013280316   132.81015543     8.08024879
 S      7   3   1     3.451235269376   115.13483432   165.77545664
 S      8   7   3     3.448239579050   118.47641145   183.48628802
 S     10   9   2     3.705299548997   125.32680831   177.86932486
 S      9   2   1     3.705598995414   102.03040846   186.49138788
 C     12   8   7     3.311051008018    94.41095054     0.25971941
 C     13  10   9     3.196669167700    83.90985407   358.39794382
 C     15  12   8     2.683438608596   122.64229635   179.65396356
 C     16  13  10     3.099816098508   119.16883060   182.62878584
 S     17  15  12     3.342666450569   121.36254980   177.83548282
 S     17  15  12     3.342844925741   121.09782769   359.04818219
 S     18  16  13     3.241810649741   118.25883401   180.10459021
 S     18  16  13     3.243196480278   118.19857221     0.90312991
 C     22  18  16     3.499574191789    96.38600956   117.46816870
 C     21  18  16     3.499646743826    96.47593704   242.37071583
 C     23  22  18     2.883424480047   113.91566728    54.54950598
 H     23  22  18     2.066254310237   108.51282839   289.35010836
 H     23  22  18     2.066749950948   104.81449492   176.78723840
 H     25  23  22     2.075439511586   108.27126284   175.07253388
 H     25  23  22     2.068476667196   109.32791705    58.50062041
 H     24  21  18     2.066639014729   104.74140207   183.61761904
 H     24  21  18     2.066154649447   108.53156535    71.02900300
 C     20  17  15     3.498386777063    98.23501958   117.21859970
 C     19  17  15     3.499695550617    97.99443865   242.90891489
 C     32  20  17     2.889587648674   113.75326452    56.62638374
 H     33  19  17     2.064558678525   108.17309985    66.79638131
 H     33  19  17     2.065635933125   105.26146185   181.70144561
 H     34  32  20     2.068567570816   109.38119158    58.90115896
 H     34  32  20     2.076777357510   108.12818016   175.41256595
 H     32  20  17     2.065635002647   105.24937556   177.85795519
 H     32  20  17     2.064576786858   108.12667134   292.75012536

---------------------
BASIS SET INFORMATION
---------------------
There are 5 groups of distinct atoms

 Group   1 Type V   : 17s11p5d1f contracted to 17s7p3d1f pattern {11111111111111111/3311111/311/1}
 Group   2 Type S   : 14s9p1d contracted to 5s4p1d pattern {73211/6111/1}
 Group   3 Type O   : 11s6p1d contracted to 5s3p1d pattern {62111/411/1}
 Group   4 Type C   : 11s6p1d contracted to 5s3p1d pattern {62111/411/1}
 Group   5 Type H   : 5s1p contracted to 3s1p pattern {311/1}

Atom   0V    basis set group =>   1
Atom   1S    basis set group =>   2
Atom   2S    basis set group =>   2
Atom   3S    basis set group =>   2
Atom   4S    basis set group =>   2
Atom   5O    basis set group =>   3
Atom   6C    basis set group =>   4
Atom   7C    basis set group =>   4
Atom   8C    basis set group =>   4
Atom   9C    basis set group =>   4
Atom  10S    basis set group =>   2
Atom  11S    basis set group =>   2
Atom  12S    basis set group =>   2
Atom  13S    basis set group =>   2
Atom  14C    basis set group =>   4
Atom  15C    basis set group =>   4
Atom  16C    basis set group =>   4
Atom  17C    basis set group =>   4
Atom  18S    basis set group =>   2
Atom  19S    basis set group =>   2
Atom  20S    basis set group =>   2
Atom  21S    basis set group =>   2
Atom  22C    basis set group =>   4
Atom  23C    basis set group =>   4
Atom  24C    basis set group =>   4
Atom  25H    basis set group =>   5
Atom  26H    basis set group =>   5
Atom  27H    basis set group =>   5
Atom  28H    basis set group =>   5
Atom  29H    basis set group =>   5
Atom  30H    basis set group =>   5
Atom  31C    basis set group =>   4
Atom  32C    basis set group =>   4
Atom  33C    basis set group =>   4
Atom  34H    basis set group =>   5
Atom  35H    basis set group =>   5
Atom  36H    basis set group =>   5
Atom  37H    basis set group =>   5
Atom  38H    basis set group =>   5
Atom  39H    basis set group =>   5

-------------------------
BASIS SET IN INPUT FORMAT
-------------------------

 # Basis set for element : H 
 NewGTO H 
 S 3 
   1      34.0613410000      0.0254393168
   2       5.1235746000      0.1900859340
   3       1.1646626000      0.8524411390
 S 1 
   1       0.3272304100      1.0000000000
 S 1 
   1       0.1030724100      1.0000000000
 P 1 
   1       0.8000000000      1.0000000000
  end;

 # Basis set for element : C 
 NewGTO C 
 S 6 
   1   13575.3496820000      0.0006064601
   2    2035.2333680000      0.0046978985
   3     463.2256235900      0.0243324735
   4     131.2001959800      0.0973999560
   5      42.8530158900      0.3019558443
   6      15.5841857700      0.6623361013
 S 2 
   1       6.2067138500      0.6559530795
   2       2.5764896500      0.3758563390
 S 1 
   1       0.5769633900      1.0000000000
 S 1 
   1       0.2297283100      1.0000000000
 S 1 
   1       0.0951644400      1.0000000000
 P 4 
   1      34.6972322400      0.0113272290
   2       7.9582622800      0.0761696612
   3       2.3780826900      0.3019225154
   4       0.8143320800      0.7278502776
 P 1 
   1       0.2888754700      1.0000000000
 P 1 
   1       0.1005682400      1.0000000000
 D 1 
   1       0.8000000000      1.0000000000
  end;

 # Basis set for element : O 
 NewGTO O 
 S 6 
   1   27032.3826310000      0.0005722654
   2    4052.3871392000      0.0044353333
   3     922.3272271000      0.0230201034
   4     261.2407098900      0.0928224938
   5      85.3546413500      0.2937849971
   6      31.0350352400      0.6740160462
 S 2 
   1      12.2608607300      0.6383993750
   2       4.9987076000      0.3953458663
 S 1 
   1       1.1703108200      1.0000000000
 S 1 
   1       0.4647474100      1.0000000000
 S 1 
   1       0.1850453600      1.0000000000
 P 4 
   1      63.2749548000      0.0120183316
   2      14.6270493800      0.0830054304
   3       4.4501223500      0.3199174388
   4       1.5275799600      0.7071554258
 P 1 
   1       0.5293511800      1.0000000000
 P 1 
   1       0.1747842100      1.0000000000
 D 1 
   1       1.2000000000      1.0000000000
  end;

 # Basis set for element : S 
 NewGTO S 
 S 7 
   1   60700.9281040000      0.0005238013
   2    9102.6106854000      0.0040506304
   3    2071.4166009000      0.0208270003
   4     586.0247682100      0.0814968475
   5     190.5539502100      0.2374911358
   6      67.6303842600      0.4472617145
   7      25.1273069100      0.3489191913
 S 3 
   1     112.5746301000      0.1004556993
   2      34.7955542200      0.4339117282
   3       6.5115556200     -1.2084330582
 S 2 
   1       3.2399032300      0.6749812922
   2       1.5477160900      0.3470879597
 S 1 
   1       0.4054103000      1.0000000000
 S 1 
   1       0.1455065100      1.0000000000
 P 6 
   1     564.3671602700      0.0025564845
   2     133.4262437900      0.0202874255
   3      42.4682711900      0.0927670112
   4      15.6165275800      0.2650208365
   5       6.1093988500      0.4486298663
   6       2.4404160200      0.3596369916
 P 1 
   1       0.8388220100      1.0000000000
 P 1 
   1       0.3128874700      1.0000000000
 P 1 
   1       0.1077010900      1.0000000000
 D 1 
   1       0.5500000000      1.0000000000
  end;

 # Basis set for element : V 
 NewGTO V 
 S 1 
   1  4239814.9912500000      1.0000000000
 S 1 
   1  1695925.9965000001      1.0000000000
 S 1 
   1  678370.3986000001      1.0000000000
 S 1 
   1  271348.1594400000      1.0000000000
 S 1 
   1   40672.0050780000      1.0000000000
 S 1 
   1    9257.0761385000      1.0000000000
 S 1 
   1    2622.7328773000      1.0000000000
 S 1 
   1     858.5948018500      1.0000000000
 S 1 
   1     314.1941865000      1.0000000000
 S 1 
   1     124.4786212700      1.0000000000
 S 1 
   1      50.4693993090      1.0000000000
 S 1 
   1      12.5138469110      1.0000000000
 S 1 
   1       5.3447758082      1.0000000000
 S 1 
   1       1.5755631295      1.0000000000
 S 1 
   1       0.6306903307      1.0000000000
 S 1 
   1       0.0879544416      1.0000000000
 S 1 
   1       0.0342969197      1.0000000000
 P 3 
   1    1450.0319327000     -0.0222847647
   2     343.7504988400     -0.1817959329
   3     110.8252170800     -0.8607412073
 P 3 
   1      41.8224645460     -0.2522537814
   2      17.0880737100     -0.4620379520
   3       7.2613218939     -0.3990010670
 P 1 
   1       2.9458145262      1.0000000000
 P 1 
   1       1.1650209680      1.0000000000
 P 1 
   1       0.4339937839      1.0000000000
 D 3 
   1      27.3603358640      0.0575501019
   2       7.4542765527      0.3023798347
   3       2.4632270217      0.7724212088
 D 1 
   1       0.8249954244      1.0000000000
 D 1 
   1       0.2526297057      1.0000000000
 P 1 
   1       0.1112480000      1.0000000000
 P 1 
   1       0.0363780000      1.0000000000
 F 1 
   1       1.8000000000      1.0000000000
  end;

---------------------------------
AUXILIARY/J BASIS SET INFORMATION
---------------------------------
There are 5 groups of distinct atoms

 Group   1 Type V   : 19s5p5d3f3g contracted to 8s5p5d2f3g pattern {121111111/11111/11111/21/111}
 Group   2 Type S   : 14s5p5d2f1g contracted to 8s4p3d1f1g pattern {71111111/2111/311/2/1}
 Group   3 Type O   : 12s5p4d2f1g contracted to 6s4p3d1f1g pattern {711111/2111/211/2/1}
 Group   4 Type C   : 12s5p4d2f1g contracted to 6s4p3d1f1g pattern {711111/2111/211/2/1}
 Group   5 Type H   : 5s2p1d contracted to 3s1p1d pattern {311/2/1}

Atom   0V    basis set group =>   1
Atom   1S    basis set group =>   2
Atom   2S    basis set group =>   2
Atom   3S    basis set group =>   2
Atom   4S    basis set group =>   2
Atom   5O    basis set group =>   3
Atom   6C    basis set group =>   4
Atom   7C    basis set group =>   4
Atom   8C    basis set group =>   4
Atom   9C    basis set group =>   4
Atom  10S    basis set group =>   2
Atom  11S    basis set group =>   2
Atom  12S    basis set group =>   2
Atom  13S    basis set group =>   2
Atom  14C    basis set group =>   4
Atom  15C    basis set group =>   4
Atom  16C    basis set group =>   4
Atom  17C    basis set group =>   4
Atom  18S    basis set group =>   2
Atom  19S    basis set group =>   2
Atom  20S    basis set group =>   2
Atom  21S    basis set group =>   2
Atom  22C    basis set group =>   4
Atom  23C    basis set group =>   4
Atom  24C    basis set group =>   4
Atom  25H    basis set group =>   5
Atom  26H    basis set group =>   5
Atom  27H    basis set group =>   5
Atom  28H    basis set group =>   5
Atom  29H    basis set group =>   5
Atom  30H    basis set group =>   5
Atom  31C    basis set group =>   4
Atom  32C    basis set group =>   4
Atom  33C    basis set group =>   4
Atom  34H    basis set group =>   5
Atom  35H    basis set group =>   5
Atom  36H    basis set group =>   5
Atom  37H    basis set group =>   5
Atom  38H    basis set group =>   5
Atom  39H    basis set group =>   5

-------------------------------------
AUXILIARY/J BASIS SET IN INPUT FORMAT
-------------------------------------

 # Auxiliary/J basis set for element : H 
 NewAuxJGTO H 
 S 3 
   1      15.6752927000      0.1007184237
   2       3.6063578000      0.3404257499
   3       1.2080016000      0.6491996172
 S 1 
   1       0.4726794000      1.0000000000
 S 1 
   1       0.2018100000      1.0000000000
 P 2 
   1       2.0281365000      0.5596620919
   2       0.5358730000      0.5596620919
 D 1 
   1       2.2165124000      1.0000000000
  end;

 # Auxiliary/J basis set for element : C 
 NewAuxJGTO C 
 S 7 
   1    1861.0916331000      0.0134602335
   2     642.9939764000      0.0299160374
   3     235.1105725000      0.1008649584
   4      90.7028894000      0.2370970548
   5      36.7794552000      0.3924037254
   6      15.6046273000      0.3195862154
   7       6.8907294000      0.0530104441
 S 1 
   1       3.1478850000     -1.0000000000
 S 1 
   1       1.4777287000      1.0000000000
 S 1 
   1       0.7076466000      1.0000000000
 S 1 
   1       0.3430122000      1.0000000000
 S 1 
   1       0.1669453000      1.0000000000
 P 2 
   1      13.5472892000     -0.6769313712
   2       5.4669419000     -0.3779500978
 P 1 
   1       2.1751721000      1.0000000000
 P 1 
   1       0.8582194000      1.0000000000
 P 1 
   1       0.3376720000      1.0000000000
 D 2 
   1       5.9287253000     -0.3533329857
   2       1.9809209000     -0.7456525731
 D 1 
   1       0.8055417000     -1.0000000000
 D 1 
   1       0.3531244000     -1.0000000000
 F 2 
   1       1.6755626000      0.6311076882
   2       0.5997536000      0.4968166032
 G 1 
   1       1.0024600000     -1.0000000000
  end;

 # Auxiliary/J basis set for element : O 
 NewAuxJGTO O 
 S 7 
   1    2876.8216605000      0.0168151159
   2    1004.7443032000      0.0340137548
   3     369.7579954000      0.1194951309
   4     142.9442404000      0.2664627624
   5      57.8366425000      0.4202764046
   6      24.3864983000      0.2765077335
   7      10.6622662000      0.0057008815
 S 1 
   1       4.8070437000     -1.0000000000
 S 1 
   1       2.2210770000      1.0000000000
 S 1 
   1       1.0447795000      1.0000000000
 S 1 
   1       0.4968425000      1.0000000000
 S 1 
   1       0.2371384000      1.0000000000
 P 2 
   1      64.2613382000     -0.2731534179
   2      16.3006076000     -0.8168011598
 P 1 
   1       4.3550542000      1.0000000000
 P 1 
   1       1.2019554000      1.0000000000
 P 1 
   1       0.3354196000      1.0000000000
 D 2 
   1       9.2146611000     -0.4661230638
   2       2.8435251000     -0.6600908911
 D 1 
   1       0.9955759000     -1.0000000000
 D 1 
   1       0.3649441000     -1.0000000000
 F 2 
   1       2.6420115000      0.5931563945
   2       0.7345613000      0.5931563945
 G 1 
   1       1.3931000000     -1.0000000000
  end;

 # Auxiliary/J basis set for element : S 
 NewAuxJGTO S 
 S 7 
   1    7399.0303145000      0.0295137551
   2    2710.1675859000      0.0559686311
   3    1034.3279062000      0.1764696370
   4     410.4645411000      0.3577969368
   5     168.9762502000      0.4299293578
   6      71.9687889000      0.1259148089
   7      31.6172683000     -0.0646025788
 S 1 
   1      14.2796836000      1.0000000000
 S 1 
   1       6.6060948000      1.0000000000
 S 1 
   1       3.1181477000      1.0000000000
 S 1 
   1       1.4954039000     -1.0000000000
 S 1 
   1       0.7254779000      1.0000000000
 S 1 
   1       0.3544216000      1.0000000000
 S 1 
   1       0.1735525000      1.0000000000
 P 2 
   1      12.6998799000      1.4059102813
   2       4.4295784000     -1.2124994202
 P 1 
   1       1.5232889000      1.0000000000
 P 1 
   1       0.5194667000     -1.0000000000
 P 1 
   1       0.1766547000     -1.0000000000
 D 3 
   1      16.8546461000      1.0295742104
   2       5.0810461000     -0.7461553923
   3       1.5102323000      0.8357028005
 D 1 
   1       0.4451331000      1.0000000000
 D 1 
   1       0.1308362000      1.0000000000
 F 2 
   1       1.0809860000      0.5572698934
   2       0.4161474000      0.5572698934
 G 1 
   1       0.6707100000     -1.0000000000
  end;

 # Auxiliary/J basis set for element : V 
 NewAuxJGTO V 
 S 12 
   1   11942.0842430000      0.0459866720
   2    2430.7110193000      0.1744615821
   3     841.0764301000      0.2900402792
   4     494.7508273000      0.1411212903
   5     291.0298903000      0.2660697186
   6     171.1940483000      0.0446365706
   7      59.2366916000     -0.0408204801
   8      34.8451117000      0.1394665381
   9      20.4971240000      0.2164746715
  10      12.0571314000      0.0864266611
  11       7.0924300000     -0.0568501658
  12       4.1720176000     -0.0126212852
 S 1 
   1       2.4541279000      1.0000000000
 S 1 
   1       1.4436046000      1.0000000000
 S 1 
   1       0.8491792000      1.0000000000
 S 1 
   1       0.2938336000      1.0000000000
 S 1 
   1       0.1728433000      1.0000000000
 S 1 
   1       0.1016725000      1.0000000000
 S 1 
   1       0.0598074000      1.0000000000
 P 1 
   1      16.7130979000     -1.0000000000
 P 1 
   1       4.7454037000     -1.0000000000
 P 1 
   1       1.3889998000      1.0000000000
 P 1 
   1       0.4142440000     -1.0000000000
 P 1 
   1       0.1243234000      1.0000000000
 D 1 
   1       7.7143225000      1.0000000000
 D 1 
   1       3.1170731000      1.0000000000
 D 1 
   1       1.2767950000     -1.0000000000
 D 1 
   1       0.5273386000      1.0000000000
 D 1 
   1       0.2184050000      1.0000000000
 F 2 
   1       3.1309344000     -1.0825667766
   2       1.0419780000      0.1809223232
 F 1 
   1       0.3559044000      1.0000000000
 G 1 
   1       8.7130110000      1.0000000000
 G 1 
   1       2.7493872000      1.0000000000
 G 1 
   1       0.8775089000      1.0000000000
  end;



           ************************************************************
           *        Program running with 8 parallel MPI-processes     *
           *              working on a common directory               *
           ************************************************************
------------------------------------------------------------------------------
                           ORCA GTO INTEGRAL CALCULATION
                           -- RI-GTO INTEGRALS CHOSEN --
------------------------------------------------------------------------------
------------------------------------------------------------------------------
                   ___                                                        
                  /   \      - P O W E R E D   B Y -                         
                 /     \                                                     
                 |  |  |   _    _      __       _____    __    __             
                 |  |  |  | |  | |    /  \     |  _  \  |  |  /  |          
                  \  \/   | |  | |   /    \    | | | |  |  | /  /          
                 / \  \   | |__| |  /  /\  \   | |_| |  |  |/  /          
                |  |  |   |  __  | /  /__\  \  |    /   |      \           
                |  |  |   | |  | | |   __   |  |    \   |  |\   \          
                \     /   | |  | | |  |  |  |  | |\  \  |  | \   \       
                 \___/    |_|  |_| |__|  |__|  |_| \__\ |__|  \__/        
                                                                              
                      - O R C A' S   B I G   F R I E N D -                    
                                      &                                       
                       - I N T E G R A L  F E E D E R -                       
                                                                              
 v1 FN, 2020, v2 2021                                                         
------------------------------------------------------------------------------


Reading SHARK input file input_101.SHARKINP.tmp ... ok
----------------------
SHARK INTEGRAL PACKAGE
----------------------

Number of atoms                             ...     40
Number of basis functions                   ...    681
Number of shells                            ...    331
Maximum angular momentum                    ...      3
Integral batch strategy                     ... SHARK/LIBINT Hybrid
RI-J (if used) integral strategy            ... SPLIT-RIJ (Revised 2003 algorithm where possible)
Printlevel                                  ...      1
Contraction scheme used                     ... SEGMENTED contraction
Coulomb Range Separation                    ... NOT USED
Exchange Range Separation                   ... NOT USED
Finite Nucleus Model                        ... NOT USED
Auxiliary Coulomb fitting basis             ... AVAILABLE
   # of basis functions in Aux-J            ...   1568
   # of shells in Aux-J                     ...    512
   Maximum angular momentum in Aux-J        ...      4
Auxiliary J/K fitting basis                 ... NOT available
Auxiliary Correlation fitting basis         ... NOT available
Auxiliary 'external' fitting basis          ... NOT available
Integral threshold                          ...     1.000000e-10
Primitive cut-off                           ...     1.000000e-11
Primitive pair pre-selection threshold      ...     1.000000e-11

Calculating pre-screening integrals         ... done (  0.1 sec) Dimension = 331
Organizing shell pair data                  ... done (  0.1 sec)
Shell pair information
Total number of shell pairs                 ...     54946
Shell pairs after pre-screening             ...     22679
Total number of primitive shell pairs       ...    221635
Primitive shell pairs kept                  ...     55361
          la=0 lb=0:   6399 shell pairs
          la=1 lb=0:   9085 shell pairs
          la=1 lb=1:   3195 shell pairs
          la=2 lb=0:   2135 shell pairs
          la=2 lb=1:   1539 shell pairs
          la=2 lb=2:    200 shell pairs
          la=3 lb=0:     57 shell pairs
          la=3 lb=1:     56 shell pairs
          la=3 lb=2:     12 shell pairs
          la=3 lb=3:      1 shell pairs

Calculating one electron integrals          ... done (  0.0 sec)
Calculating RI/J V-Matrix + Cholesky decomp.... done (  0.1 sec)
Calculating Nuclear repulsion               ... done (  0.0 sec) ENN=   5075.370079055056 Eh

SHARK setup successfully completed in   0.7 seconds

Maximum memory used throughout the entire GTOINT-calculation: 39.7 MB


           ************************************************************
           *        Program running with 8 parallel MPI-processes     *
           *              working on a common directory               *
           ************************************************************
-------------------------------------------------------------------------------
                                 ORCA SCF
-------------------------------------------------------------------------------

------------
SCF SETTINGS
------------
Hamiltonian:
 Density Functional     Method          .... DFT(GTOs)
 Exchange Functional    Exchange        .... B88
   X-Alpha parameter    XAlpha          ....  0.666667
   Becke's b parameter  XBeta           ....  0.004200
 Correlation Functional Correlation     .... LYP
 LDA part of GGA corr.  LDAOpt          .... VWN-5
 Gradients option       PostSCFGGA      .... off
 Hybrid DFT is turned on
   Fraction HF Exchange ScalHFX         ....  0.200000
   Scaling of DF-GGA-X  ScalDFX         ....  0.720000
   Scaling of DF-GGA-C  ScalDFC         ....  0.810000
   Scaling of DF-LDA-C  ScalLDAC        ....  1.000000
   Perturbative correction              ....  0.000000
   Density functional embedding theory  .... OFF
   NL short-range parameter             ....  4.800000
 RI-approximation to the Coulomb term is turned on
   Number of AuxJ basis functions       .... 1568
   RIJ-COSX (HFX calculated with COS-X)).... on


General Settings:
 Integral files         IntName         .... input_101
 Hartree-Fock type      HFTyp           .... UHF
 Total Charge           Charge          ....   -2
 Multiplicity           Mult            ....    2
 Number of Electrons    NEL             ....  321
 Basis Dimension        Dim             ....  681
 Nuclear Repulsion      ENuc            ....   5075.3700790551 Eh

Convergence Acceleration:
 DIIS                   CNVDIIS         .... on
   Start iteration      DIISMaxIt       ....    12
   Startup error        DIISStart       ....  0.200000
   # of expansion vecs  DIISMaxEq       ....     5
   Bias factor          DIISBfac        ....   1.050
   Max. coefficient     DIISMaxC        ....  10.000
 Trust-Rad. Augm. Hess. CNVTRAH         .... auto
   Auto Start mean grad. ratio tolernc. ....  1.125000
   Auto Start start iteration           ....    20
   Auto Start num. interpolation iter.  ....    10
   Max. Number of Micro iterations      ....    16
   Max. Number of Macro iterations      .... Maxiter - #DIIS iter
   Number of Davidson start vectors     ....     2
   Converg. threshold I  (grad. norm)   ....   5.000e-05
   Converg. threshold II (energy diff.) ....   1.000e-06
   Grad. Scal. Fac. for Micro threshold ....   0.100
   Minimum threshold for Micro iter.    ....   0.010
   NR start threshold (gradient norm)   ....   0.001
   Initial trust radius                 ....   0.400
   Minimum AH scaling param. (alpha)    ....   1.000
   Maximum AH scaling param. (alpha)    .... 1000.000
   Orbital update algorithm             .... Taylor
   White noise on init. David. guess    .... on
   Maximum white noise                  ....   0.010
   Quad. conv. algorithm                .... NR
 SOSCF                  CNVSOSCF        .... off
 Level Shifting         CNVShift        .... on
   Level shift para.    LevelShift      ....    0.2500
   Turn off err/grad.   ShiftErr        ....    0.0010
 Zerner damping         CNVZerner       .... off
 Static damping         CNVDamp         .... on
   Fraction old density DampFac         ....    0.7000
   Max. Damping (<1)    DampMax         ....    0.9800
   Min. Damping (>=0)   DampMin         ....    0.0000
   Turn off err/grad.   DampErr         ....    0.1000
 Fernandez-Rico         CNVRico         .... off

SCF Procedure:
 Maximum # iterations   MaxIter         ....   125
 SCF integral mode      SCFMode         .... Direct
   Integral package                     .... SHARK and LIBINT hybrid scheme
 Reset frequency        DirectResetFreq ....    20
 Integral Threshold     Thresh          ....  1.000e-10 Eh
 Primitive CutOff       TCut            ....  1.000e-11 Eh

Convergence Tolerance:
 Convergence Check Mode ConvCheckMode   .... Total+1el-Energy
 Convergence forced     ConvForced      .... 0
 Energy Change          TolE            ....  1.000e-06 Eh
 1-El. energy change                    ....  1.000e-03 Eh
 DIIS Error             TolErr          ....  1.000e-06


Diagonalization of the overlap matrix:
Smallest eigenvalue                        ... 9.412e-06
Time for diagonalization                   ...    0.184 sec
Threshold for overlap eigenvalues          ... 1.000e-08
Number of eigenvalues below threshold      ... 0
Time for construction of square roots      ...    0.160 sec
Total time needed                          ...    0.347 sec

Time for model grid setup =    0.354 sec

------------------------------
INITIAL GUESS: MODEL POTENTIAL
------------------------------
Loading Hartree-Fock densities                     ... done
Calculating cut-offs                               ... done
Initializing the effective Hamiltonian             ... done
Setting up the integral package (SHARK)            ... done
Starting the Coulomb interaction                   ... done (   0.3 sec)
Reading the grid                                   ... done
Mapping shells                                     ... done
Starting the XC term evaluation                    ... done (   0.2 sec)
  promolecular density results
     # of electrons  =    318.993536816
     EX              =   -428.494138818
     EC              =    -12.546181007
     EX+EC           =   -441.040319824
Transforming the Hamiltonian                       ... done (   0.2 sec)
Diagonalizing the Hamiltonian                      ... done (   0.2 sec)
Back transforming the eigenvectors                 ... done (   0.1 sec)
Now organizing SCF variables                       ... done
                      ------------------
                      INITIAL GUESS DONE (   1.3 sec)
                      ------------------
-------------------
DFT GRID GENERATION
-------------------

General Integration Accuracy     IntAcc      ... 4.388
Radial Grid Type                 RadialGrid  ... OptM3 with GC (2021)
Angular Grid (max. ang.)         AngularGrid ... 4 (Lebedev-302)
Angular grid pruning method      GridPruning ... 4 (adaptive)
Weight generation scheme         WeightScheme... Becke
Basis function cutoff            BFCut       ... 1.0000e-10
Integration weight cutoff        WCut        ... 1.0000e-14
Angular grids for H and He will be reduced by one unit
Partially contracted basis set               ... off
Rotationally invariant grid construction     ... off

Total number of grid points                  ...   237234
Total number of batches                      ...     3726
Average number of points per batch           ...       63
Average number of grid points per atom       ...     5931
Time for grid setup =    1.796 sec

--------------------
COSX GRID GENERATION
--------------------

GRIDX 1
-------
General Integration Accuracy     IntAcc      ... 3.816
Radial Grid Type                 RadialGrid  ... OptM3 with GC (2021)
Angular Grid (max. ang.)         AngularGrid ... 1 (Lebedev-50)
Angular grid pruning method      GridPruning ... 4 (adaptive)
Weight generation scheme         WeightScheme... Becke
Basis function cutoff            BFCut       ... 1.0000e-10
Integration weight cutoff        WCut        ... 1.0000e-14
Angular grids for H and He will be reduced by one unit
Partially contracted basis set               ... on
Rotationally invariant grid construction     ... off

Total number of grid points                  ...    29197
Total number of batches                      ...      479
Average number of points per batch           ...       60
Average number of grid points per atom       ...      730
UseSFitting                                  ... on

GRIDX 2
-------
General Integration Accuracy     IntAcc      ... 4.020
Radial Grid Type                 RadialGrid  ... OptM3 with GC (2021)
Angular Grid (max. ang.)         AngularGrid ... 2 (Lebedev-110)
Angular grid pruning method      GridPruning ... 4 (adaptive)
Weight generation scheme         WeightScheme... Becke
Basis function cutoff            BFCut       ... 1.0000e-10
Integration weight cutoff        WCut        ... 1.0000e-14
Angular grids for H and He will be reduced by one unit
Partially contracted basis set               ... on
Rotationally invariant grid construction     ... off

Total number of grid points                  ...    64046
Total number of batches                      ...     1021
Average number of points per batch           ...       62
Average number of grid points per atom       ...     1601
UseSFitting                                  ... on

GRIDX 3
-------
General Integration Accuracy     IntAcc      ... 4.338
Radial Grid Type                 RadialGrid  ... OptM3 with GC (2021)
Angular Grid (max. ang.)         AngularGrid ... 3 (Lebedev-194)
Angular grid pruning method      GridPruning ... 4 (adaptive)
Weight generation scheme         WeightScheme... Becke
Basis function cutoff            BFCut       ... 1.0000e-10
Integration weight cutoff        WCut        ... 1.0000e-14
Angular grids for H and He will be reduced by one unit
Partially contracted basis set               ... on
Rotationally invariant grid construction     ... off

Total number of grid points                  ...   147211
Total number of batches                      ...     2324
Average number of points per batch           ...       63
Average number of grid points per atom       ...     3680
UseSFitting                                  ... on

Time for X-Grid setup             =    1.904 sec

--------------
SCF ITERATIONS
--------------
ITER       Energy         Delta-E        Max-DP      RMS-DP      [F,P]     Damp
               ***  Starting incremental Fock matrix formation  ***
  0  -6333.8496791039   0.000000000000 3.44143530  0.01058398  0.2289668 0.7000
  1  -6334.0899680277  -0.240288923780 2.10232350  0.00589025  0.1546169 0.7000
                               ***Turning on DIIS***
  2  -6334.5863596988  -0.496391671125 1.50820862  0.00421642  0.1081230 0.7000
  3  -6334.9102088585  -0.323849159663 4.39227005  0.01232746  0.0772322 0.0000
  4  -6335.4493272585  -0.539118400029 0.04829780  0.00043167  0.1138538 0.7000
  5  -6335.5370019634  -0.087674704926 1.16916505  0.00380901  0.0801418 0.0000
  6  -6335.7069851289  -0.169983165505 1.84439288  0.00502082  0.0261960 0.0000
  7  -6335.7236348310  -0.016649702112 0.05112901  0.00028302  0.0160926 0.0000
  8  -6335.7306207795  -0.006985948491 0.45132711  0.00115541  0.0071375 0.0000
  9  -6335.7356067599  -0.004985980400 0.30391217  0.00074798  0.0059845 0.0000
 10  -6335.7405930925  -0.004986332552 0.50416817  0.00124716  0.0047972 0.0000
 11  -6335.7452692230  -0.004676130538 0.05772994  0.00018389  0.0102156 0.0000
 12  -6335.7505739450  -0.005304721958 0.03034954  0.00010843  0.0070003 0.0000
 13  -6335.7541227301  -0.003548785111 0.04486536  0.00012763  0.0053807 0.0000
 14  -6335.7560491259  -0.001926395792 0.01050884  0.00006192  0.0075064 0.0000
 15  -6335.7576982754  -0.001649149496 0.05235464  0.00019947  0.0095732 0.0000
 16  -6335.7616423861  -0.003944110757 0.09200007  0.00021753  0.0075751 0.0000
 17  -6335.7653441841  -0.003701797927 0.15229039  0.00037902  0.0065763 0.0000
 18  -6335.7695593087  -0.004215124624 0.09936998  0.00028988  0.0043205 0.0000
 19  -6335.7742388810  -0.004679572276 0.08052629  0.00020073  0.0047428 0.0000
               *** Restarting incremental Fock matrix formation ***
                                   *** Resetting DIIS ***

 WARNING: the maximum gradient error descreased on average only by a factor   1.1
          during the last 20 iterations

                      *** Initiating the TRAH-SCF procedure ***


TRAH GRIDX
----------

General Integration Accuracy     IntAcc      ... 3.067
Radial Grid Type                 RadialGrid  ... OptM3 with GC (2021)
Angular Grid (max. ang.)         AngularGrid ... 1 (Lebedev-50)
Angular grid pruning method      GridPruning ... 4 (adaptive)
Weight generation scheme         WeightScheme... Becke
Basis function cutoff            BFCut       ... 1.0000e-10
Integration weight cutoff        WCut        ... 1.0000e-14
Angular grids for H and He will be reduced by one unit
Partially contracted basis set               ... on
Rotationally invariant grid construction     ... off

Total number of grid points                  ...    17781
Total number of batches                      ...      301
Average number of points per batch           ...       59
Average number of grid points per atom       ...      445


TRAH GRID
---------

General Integration Accuracy     IntAcc      ... 3.467
Radial Grid Type                 RadialGrid  ... OptM3 with GC (2021)
Angular Grid (max. ang.)         AngularGrid ... 1 (Lebedev-50)
Angular grid pruning method      GridPruning ... 4 (adaptive)
Weight generation scheme         WeightScheme... Becke
Basis function cutoff            BFCut       ... 1.0000e-10
Integration weight cutoff        WCut        ... 1.0000e-14
Angular grids for H and He will be reduced by one unit
Partially contracted basis set               ... off
Rotationally invariant grid construction     ... off

Total number of grid points                  ...    39352
Total number of batches                      ...      637
Average number of points per batch           ...       61
Average number of grid points per atom       ...      984

 --------------------------------------------------------------------------------------------
   Iter.        energy            ||Error||_2        Shift      TRadius  Mac/Mic        Rej.
 --------------------------------------------------------------------------------------------
    0      -6335.777064986034     3.123166e-02                     0.400 (TRAH MAcro)   No
    0     dE    -3.563867e-04     1.259458e+00    -3.5634e-04      0.011 (TRAH MIcro)
    0     dE    -7.809121e-03     3.901983e+00    -6.9736e-03      0.346 (TRAH MIcro)
    0     dE    -1.157772e-02     8.594201e-01    -1.9563e-02      0.400 (TRAH MIcro)
    0     dE    -1.208087e-02     9.698192e-02    -2.2301e-02      0.400 (TRAH MIcro)
    0     dE    -1.235499e-02     1.615106e-01    -2.4015e-02      0.400 (TRAH MIcro)
    0     dE    -1.241821e-02     8.744830e-02    -2.4555e-02      0.400 (TRAH MIcro)
    0     dE    -1.243071e-02     1.692974e-02    -2.4644e-02      0.400 (TRAH MIcro)
    0     dE    -1.243612e-02     3.872853e-02    -2.4680e-02      0.400 (TRAH MIcro)
    0     dE    -1.243720e-02     6.482307e-03    -2.4671e-02      0.400 (TRAH MIcro)
    0     dE    -1.243754e-02     4.716558e-03    -2.4672e-02      0.400 (TRAH MIcro)
    0     dE    -1.243761e-02     6.499754e-03    -2.4667e-02      0.400 (TRAH MIcro)
    0     dE    -1.243765e-02     1.201125e-03    -2.4668e-02      0.400 (TRAH MIcro)
    1      -6335.787287781589     2.004661e-02                     0.480 (TRAH MAcro)   No
    1     dE    -9.895031e-09     3.669316e-01    -2.7298e-06      0.000 (TRAH MIcro)
    1     dE    -2.733502e-04     5.634554e-02    -2.7324e-04      0.020 (TRAH MIcro)
    1     dE    -4.246301e-04     4.027513e-02    -4.2383e-04      0.043 (TRAH MIcro)
    1     dE    -5.968887e-04     7.795139e-03    -5.9263e-04      0.085 (TRAH MIcro)
    1     dE    -6.265695e-04     3.706552e-03    -6.2114e-04      0.094 (TRAH MIcro)
    1     dE    -6.406594e-04     2.538326e-03    -6.3458e-04      0.098 (TRAH MIcro)
    1     dE    -6.456476e-04     2.637558e-03    -6.3934e-04      0.099 (TRAH MIcro)
    1     dE    -6.473754e-04     1.058179e-03    -6.4102e-04      0.100 (TRAH MIcro)
    2      -6335.787957367404     2.191491e-03                     0.576 (TRAH MAcro)   No
    2     dE    -3.424735e-12     6.675375e-03    -3.4247e-06      0.000 (TRAH MIcro)
    2     dE    -3.336295e-06     8.509717e-04    -3.3363e-06      0.002 (TRAH MIcro)
    2     dE    -4.626414e-06     9.076002e-04    -4.6263e-06      0.005 (TRAH MIcro)
    2     dE    -5.035410e-06     5.604233e-04    -5.0352e-06      0.006 (TRAH MIcro)
    2     dE    -5.236643e-06     2.836210e-04    -5.2364e-06      0.007 (TRAH MIcro)
    2     dE    -5.349562e-06     2.341863e-04    -5.3493e-06      0.007 (TRAH MIcro)
    2     dE    -5.401156e-06     1.208211e-04    -5.4008e-06      0.008 (TRAH MIcro)
    3      -6335.787962788851     1.213085e-04                           (NR   MAcro)
    3     dE    -9.800997e-09     7.296601e-05                           (NR   MIcro)
    3     dE    -1.557334e-08     6.022841e-05                           (NR   MIcro)
    3     dE    -1.748361e-08     5.518739e-05                           (NR   MIcro)
    3     dE    -1.949374e-08     3.509488e-05                           (NR   MIcro)
    3     dE    -2.049406e-08     1.788688e-05                           (NR   MIcro)
    3     dE    -2.076922e-08     1.126542e-05                           (NR   MIcro)
    3     dE    -2.088075e-08     6.707367e-06                           (NR   MIcro)
    3     dE    -2.091938e-08     3.717629e-06                           (NR   MIcro)
    4      -6335.787962809582     3.760580e-06                           (NR   MAcro)

               *****************************************************
               *                     SUCCESS                       *
               *           SCF CONVERGED AFTER  60 CYCLES          *
               *****************************************************

Old exchange energy                            =    -86.038924026 Eh
New exchange energy                            =    -86.038921133 Eh
Exchange energy change after final integration =      0.000002893 Eh
Total energy after final integration           =  -6335.787959916 Eh
Final COS-X integration done in                =    21.294 sec

----------------
TOTAL SCF ENERGY
----------------

Total Energy       :        -6335.78795992 Eh         -172405.55532 eV

Components:
Nuclear Repulsion  :         5075.37007906 Eh          138107.84112 eV
Electronic Energy  :       -11411.15803897 Eh         -310513.39644 eV
One Electron Energy:       -18916.19750144 Eh         -514735.90268 eV
Two Electron Energy:         7505.03946247 Eh          204222.50625 eV
Max COSX asymmetry :            0.00000099 Eh               0.00003 eV

Virial components:
Potential Energy   :       -12662.34234355 Eh         -344559.85225 eV
Kinetic Energy     :         6326.55438364 Eh          172154.29693 eV
Virial Ratio       :            2.00145950


DFT components:
N(Alpha)           :      161.000091904903 electrons
N(Beta)            :      160.000087917454 electrons
N(Total)           :      321.000179822357 electrons
E(X)               :     -341.960801342890 Eh       
E(C)               :      -14.739796498541 Eh       
E(XC)              :     -356.700597841431 Eh       
DFET-embed. en.    :        0.000000000000 Eh       

---------------
SCF CONVERGENCE
---------------

  Last Energy change         ...   -2.0731e-08  Tolerance :   1.0000e-06
  Last Orbital Gradient      ...    3.7606e-06  Tolerance :   5.0000e-05
  Last Orbital Rotation      ...    5.1750e-04

             **** THE GBW FILE WAS UPDATED (input_101.gbw) ****
             **** DENSITY input_101.scfp WAS UPDATED ****
             **** ENERGY FILE WAS UPDATED (input_101.en.tmp) ****
----------------------
UHF SPIN CONTAMINATION
----------------------

Warning: in a DFT calculation there is little theoretical justification to 
         calculate <S**2> as in Hartree-Fock theory. We will do it anyways
         but you should keep in mind that the values have only limited relevance

Expectation value of <S**2>     :     0.768644
Ideal value S*(S+1) for S=0.5   :     0.750000
Deviation                       :     0.018644

             **** THE GBW FILE WAS UPDATED (input_101.gbw) ****
             **** DENSITY input_101.scfp WAS UPDATED ****
----------------
ORBITAL ENERGIES
----------------
                 SPIN UP ORBITALS
  NO   OCC          E(Eh)            E(eV) 
   0   1.0000    -196.681491     -5351.9755 
   1   1.0000     -88.736612     -2414.6460 
   2   1.0000     -88.736349     -2414.6388 
   3   1.0000     -88.734783     -2414.5962 
   4   1.0000     -88.734637     -2414.5922 
   5   1.0000     -88.734621     -2414.5918 
   6   1.0000     -88.734607     -2414.5914 
   7   1.0000     -88.725587     -2414.3460 
   8   1.0000     -88.725542     -2414.3448 
   9   1.0000     -88.643597     -2412.1149 
  10   1.0000     -88.643410     -2412.1098 
  11   1.0000     -88.642333     -2412.0805 
  12   1.0000     -88.641910     -2412.0690 
  13   1.0000     -22.057625      -600.2185 
  14   1.0000     -18.893228      -514.1109 
  15   1.0000     -18.563872      -505.1486 
  16   1.0000     -18.559096      -505.0187 
  17   1.0000     -18.559027      -505.0168 
  18   1.0000     -10.178905      -276.9821 
  19   1.0000     -10.087683      -274.4998 
  20   1.0000     -10.082750      -274.3656 
  21   1.0000     -10.064190      -273.8605 
  22   1.0000     -10.064134      -273.8590 
  23   1.0000     -10.052599      -273.5451 
  24   1.0000     -10.052489      -273.5421 
  25   1.0000     -10.051831      -273.5242 
  26   1.0000     -10.051806      -273.5235 
  27   1.0000     -10.047705      -273.4119 
  28   1.0000     -10.044156      -273.3154 
  29   1.0000     -10.011499      -272.4267 
  30   1.0000     -10.009191      -272.3639 
  31   1.0000      -9.978000      -271.5152 
  32   1.0000      -7.789990      -211.9764 
  33   1.0000      -7.789748      -211.9698 
  34   1.0000      -7.788224      -211.9284 
  35   1.0000      -7.788192      -211.9275 
  36   1.0000      -7.787999      -211.9222 
  37   1.0000      -7.787873      -211.9188 
  38   1.0000      -7.779621      -211.6942 
  39   1.0000      -7.779570      -211.6929 
  40   1.0000      -7.695967      -209.4179 
  41   1.0000      -7.695841      -209.4145 
  42   1.0000      -7.695672      -209.4099 
  43   1.0000      -7.695488      -209.4049 
  44   1.0000      -5.754761      -156.5950 
  45   1.0000      -5.754513      -156.5882 
  46   1.0000      -5.753191      -156.5523 
  47   1.0000      -5.753168      -156.5516 
  48   1.0000      -5.752958      -156.5459 
  49   1.0000      -5.752837      -156.5426 
  50   1.0000      -5.750685      -156.4841 
  51   1.0000      -5.750435      -156.4773 
  52   1.0000      -5.749752      -156.4587 
  53   1.0000      -5.749725      -156.4580 
  54   1.0000      -5.748564      -156.4264 
  55   1.0000      -5.748434      -156.4228 
  56   1.0000      -5.745719      -156.3490 
  57   1.0000      -5.745493      -156.3428 
  58   1.0000      -5.744559      -156.3174 
  59   1.0000      -5.744513      -156.3161 
  60   1.0000      -5.743751      -156.2954 
  61   1.0000      -5.743616      -156.2917 
  62   1.0000      -5.743070      -156.2769 
  63   1.0000      -5.743024      -156.2756 
  64   1.0000      -5.740909      -156.2181 
  65   1.0000      -5.740860      -156.2168 
  66   1.0000      -5.734684      -156.0487 
  67   1.0000      -5.734634      -156.0473 
  68   1.0000      -5.662996      -154.0980 
  69   1.0000      -5.662869      -154.0945 
  70   1.0000      -5.661674      -154.0620 
  71   1.0000      -5.661218      -154.0496 
  72   1.0000      -5.654679      -153.8716 
  73   1.0000      -5.654247      -153.8599 
  74   1.0000      -5.654223      -153.8592 
  75   1.0000      -5.654075      -153.8552 
  76   1.0000      -5.652931      -153.8241 
  77   1.0000      -5.652415      -153.8100 
  78   1.0000      -5.651945      -153.7972 
  79   1.0000      -5.651739      -153.7916 
  80   1.0000      -2.448026       -66.6142 
  81   1.0000      -1.489034       -40.5187 
  82   1.0000      -1.476876       -40.1878 
  83   1.0000      -1.476594       -40.1802 
  84   1.0000      -0.713760       -19.4224 
  85   1.0000      -0.706636       -19.2286 
  86   1.0000      -0.693181       -18.8624 
  87   1.0000      -0.687806       -18.7161 
  88   1.0000      -0.652604       -17.7583 
  89   1.0000      -0.636416       -17.3178 
  90   1.0000      -0.619091       -16.8463 
  91   1.0000      -0.616269       -16.7695 
  92   1.0000      -0.611975       -16.6527 
  93   1.0000      -0.584559       -15.9067 
  94   1.0000      -0.573373       -15.6023 
  95   1.0000      -0.572402       -15.5759 
  96   1.0000      -0.561908       -15.2903 
  97   1.0000      -0.496405       -13.5079 
  98   1.0000      -0.491996       -13.3879 
  99   1.0000      -0.489387       -13.3169 
 100   1.0000      -0.474451       -12.9105 
 101   1.0000      -0.471660       -12.8345 
 102   1.0000      -0.452667       -12.3177 
 103   1.0000      -0.447121       -12.1668 
 104   1.0000      -0.443468       -12.0674 
 105   1.0000      -0.430060       -11.7025 
 106   1.0000      -0.401364       -10.9217 
 107   1.0000      -0.357826        -9.7369 
 108   1.0000      -0.350045        -9.5252 
 109   1.0000      -0.330411        -8.9909 
 110   1.0000      -0.328410        -8.9365 
 111   1.0000      -0.320488        -8.7209 
 112   1.0000      -0.313659        -8.5351 
 113   1.0000      -0.313031        -8.5180 
 114   1.0000      -0.303624        -8.2620 
 115   1.0000      -0.292934        -7.9711 
 116   1.0000      -0.288122        -7.8402 
 117   1.0000      -0.284884        -7.7521 
 118   1.0000      -0.275837        -7.5059 
 119   1.0000      -0.259134        -7.0514 
 120   1.0000      -0.258380        -7.0309 
 121   1.0000      -0.248906        -6.7731 
 122   1.0000      -0.236311        -6.4303 
 123   1.0000      -0.233610        -6.3569 
 124   1.0000      -0.231723        -6.3055 
 125   1.0000      -0.227398        -6.1878 
 126   1.0000      -0.220463        -5.9991 
 127   1.0000      -0.219037        -5.9603 
 128   1.0000      -0.218925        -5.9573 
 129   1.0000      -0.200495        -5.4557 
 130   1.0000      -0.195042        -5.3074 
 131   1.0000      -0.189636        -5.1603 
 132   1.0000      -0.184015        -5.0073 
 133   1.0000      -0.177857        -4.8397 
 134   1.0000      -0.166567        -4.5325 
 135   1.0000      -0.164570        -4.4782 
 136   1.0000      -0.157461        -4.2847 
 137   1.0000      -0.153299        -4.1715 
 138   1.0000      -0.141411        -3.8480 
 139   1.0000      -0.129402        -3.5212 
 140   1.0000      -0.121707        -3.3118 
 141   1.0000      -0.114862        -3.1255 
 142   1.0000      -0.113080        -3.0771 
 143   1.0000      -0.100089        -2.7236 
 144   1.0000      -0.099009        -2.6942 
 145   1.0000      -0.094668        -2.5761 
 146   1.0000      -0.091509        -2.4901 
 147   1.0000      -0.079072        -2.1517 
 148   1.0000      -0.075081        -2.0431 
 149   1.0000      -0.069009        -1.8778 
 150   1.0000      -0.053667        -1.4604 
 151   1.0000      -0.046675        -1.2701 
 152   1.0000      -0.046143        -1.2556 
 153   1.0000      -0.035054        -0.9539 
 154   1.0000      -0.034732        -0.9451 
 155   1.0000      -0.022728        -0.6185 
 156   1.0000      -0.020572        -0.5598 
 157   1.0000      -0.018436        -0.5017 
 158   1.0000      -0.011744        -0.3196 
 159   1.0000      -0.006182        -0.1682 
 160   1.0000       0.018278         0.4974 
 161   0.0000       0.075049         2.0422 
 162   0.0000       0.120623         3.2823 
 163   0.0000       0.130220         3.5435 
 164   0.0000       0.154264         4.1977 
 165   0.0000       0.168146         4.5755 
 166   0.0000       0.170248         4.6327 
 167   0.0000       0.170947         4.6517 
 168   0.0000       0.172011         4.6807 
 169   0.0000       0.172876         4.7042 
 170   0.0000       0.175756         4.7826 
 171   0.0000       0.177829         4.8390 
 172   0.0000       0.180170         4.9027 
 173   0.0000       0.184996         5.0340 
 174   0.0000       0.192065         5.2264 
 175   0.0000       0.196888         5.3576 
 176   0.0000       0.200827         5.4648 
 177   0.0000       0.204627         5.5682 
 178   0.0000       0.205444         5.5904 
 179   0.0000       0.211593         5.7577 
 180   0.0000       0.212829         5.7914 
 181   0.0000       0.218011         5.9324 
 182   0.0000       0.219277         5.9668 
 183   0.0000       0.227701         6.1961 
 184   0.0000       0.228608         6.2207 
 185   0.0000       0.234461         6.3800 
 186   0.0000       0.236724         6.4416 
 187   0.0000       0.236970         6.4483 
 188   0.0000       0.241235         6.5643 
 189   0.0000       0.242040         6.5862 
 190   0.0000       0.244310         6.6480 
 191   0.0000       0.251369         6.8401 
 192   0.0000       0.254337         6.9209 
 193   0.0000       0.261185         7.1072 
 194   0.0000       0.263041         7.1577 
 195   0.0000       0.268380         7.3030 
 196   0.0000       0.270245         7.3537 
 197   0.0000       0.273751         7.4491 
 198   0.0000       0.273987         7.4556 
 199   0.0000       0.275524         7.4974 
 200   0.0000       0.287121         7.8130 
 201   0.0000       0.291528         7.9329 
 202   0.0000       0.303125         8.2485 
 203   0.0000       0.316032         8.5997 
 204   0.0000       0.319830         8.7030 
 205   0.0000       0.328848         8.9484 
 206   0.0000       0.331522         9.0212 
 207   0.0000       0.338889         9.2216 
 208   0.0000       0.343361         9.3433 
 209   0.0000       0.346692         9.4340 
 210   0.0000       0.350387         9.5345 
 211   0.0000       0.351214         9.5570 
 212   0.0000       0.351639         9.5686 
 213   0.0000       0.357138         9.7182 
 214   0.0000       0.358173         9.7464 
 215   0.0000       0.360931         9.8214 
 216   0.0000       0.372441        10.1346 
 217   0.0000       0.375709        10.2236 
 218   0.0000       0.380214        10.3461 
 219   0.0000       0.387927        10.5560 
 220   0.0000       0.388509        10.5719 
 221   0.0000       0.390229        10.6187 
 222   0.0000       0.393415        10.7054 
 223   0.0000       0.396747        10.7960 
 224   0.0000       0.397267        10.8102 
 225   0.0000       0.402440        10.9510 
 226   0.0000       0.404547        11.0083 
 227   0.0000       0.405279        11.0282 
 228   0.0000       0.412857        11.2344 
 229   0.0000       0.414573        11.2811 
 230   0.0000       0.419325        11.4104 
 231   0.0000       0.422510        11.4971 
 232   0.0000       0.430992        11.7279 
 233   0.0000       0.435768        11.8578 
 234   0.0000       0.440521        11.9872 
 235   0.0000       0.444254        12.0888 
 236   0.0000       0.446873        12.1600 
 237   0.0000       0.449465        12.2306 
 238   0.0000       0.456194        12.4137 
 239   0.0000       0.459017        12.4905 
 240   0.0000       0.465041        12.6544 
 241   0.0000       0.468462        12.7475 
 242   0.0000       0.470029        12.7901 
 243   0.0000       0.476466        12.9653 
 244   0.0000       0.480317        13.0701 
 245   0.0000       0.481441        13.1007 
 246   0.0000       0.482928        13.1411 
 247   0.0000       0.484203        13.1758 
 248   0.0000       0.494270        13.4498 
 249   0.0000       0.498311        13.5597 
 250   0.0000       0.498755        13.5718 
 251   0.0000       0.500752        13.6261 
 252   0.0000       0.505693        13.7606 
 253   0.0000       0.507318        13.8048 
 254   0.0000       0.512836        13.9550 
 255   0.0000       0.513080        13.9616 
 256   0.0000       0.516634        14.0583 
 257   0.0000       0.519305        14.1310 
 258   0.0000       0.519493        14.1361 
 259   0.0000       0.521702        14.1962 
 260   0.0000       0.525695        14.3049 
 261   0.0000       0.528234        14.3740 
 262   0.0000       0.528343        14.3769 
 263   0.0000       0.531520        14.4634 
 264   0.0000       0.532055        14.4779 
 265   0.0000       0.539539        14.6816 
 266   0.0000       0.543246        14.7825 
 267   0.0000       0.547159        14.8890 
 268   0.0000       0.549940        14.9646 
 269   0.0000       0.551190        14.9987 
 270   0.0000       0.554741        15.0953 
 271   0.0000       0.556270        15.1369 
 272   0.0000       0.560770        15.2593 
 273   0.0000       0.566017        15.4021 
 274   0.0000       0.568139        15.4598 
 275   0.0000       0.571728        15.5575 
 276   0.0000       0.577741        15.7211 
 277   0.0000       0.579277        15.7629 
 278   0.0000       0.580625        15.7996 
 279   0.0000       0.583150        15.8683 
 280   0.0000       0.588718        16.0198 
 281   0.0000       0.588935        16.0257 
 282   0.0000       0.590453        16.0670 
 283   0.0000       0.596340        16.2272 
 284   0.0000       0.596878        16.2419 
 285   0.0000       0.604913        16.4605 
 286   0.0000       0.605163        16.4673 
 287   0.0000       0.608216        16.5504 
 288   0.0000       0.615158        16.7393 
 289   0.0000       0.616465        16.7749 
 290   0.0000       0.619448        16.8560 
 291   0.0000       0.626482        17.0474 
 292   0.0000       0.630355        17.1528 
 293   0.0000       0.632118        17.2008 
 294   0.0000       0.632869        17.2213 
 295   0.0000       0.638838        17.3837 
 296   0.0000       0.650995        17.7145 
 297   0.0000       0.651537        17.7292 
 298   0.0000       0.663153        18.0453 
[...]
Total number of batches                      ...      301
Average number of points per batch           ...       59
Average number of grid points per atom       ...      445

Memory available               ... 821.9 MB
Memory needed per perturbation ...  41.3 MB
Perturbations treated per batch... 3
Number of batches              ... 1
     CP-SCF ITERATION   0:   4.2563e-02 (   4.8 sec   0/  3 done)
     CP-SCF ITERATION   1:   1.2840e-03 (   4.9 sec   0/  3 done)
     CP-SCF ITERATION   2:   1.3593e-04 (   5.0 sec   3/  3 done)
                    *** THE CP-SCF HAS CONVERGED ***

Forming final perturbed densities           ... done
Transforming perturbed density to AO basis  ... done

 Raw HFC matrix (all values in MHz): 
 -----------------------------------
                 0.0754              -0.1148               0.0373
                -0.1151               0.0167              -0.0292
                 0.0368              -0.0288              -0.0639

 A(FC)           0.0091               0.0091               0.0091
 A(SD)          -0.0821              -0.0839               0.1660
 A(ORB+DIA)      0.0005               0.0016              -0.0010    A(PC) =   0.0004
 A(ORB)          0.0005               0.0016              -0.0010    A(PC) =   0.0004
 A(DIA)         -0.0000              -0.0000               0.0000    A(PC) =  -0.0000
             ----------           ----------           ----------
 A(Tot)         -0.0725              -0.0732               0.1740    A(iso)=    0.0094
 Orientation: 
  X           0.6314898            0.0360058            0.7745478
  Y           0.7180412            0.3498490           -0.6016830
  Z          -0.2926388            0.9361139            0.1950724

Notes:  (1) The A matrix conforms to the "SAI" spin Hamiltonian convention.
        (2) Tensor is right-handed.

 Raw EFG matrix (all values in a.u.**-3):
 -----------------------------------
             0.2809      -0.0190      -0.0626
            -0.0190      -0.1398       0.0047
            -0.0626       0.0047      -0.1411

 V(El)       0.5478       0.8174      -1.3653
 V(Nuc)     -0.6881      -0.9681       1.6562
         ----------   ----------   ----------
 V(Tot)     -0.1403      -0.1506       0.2909 
 Orientation: 
  X      -0.0712847    0.1327107   -0.9885881
  Y      -0.9806657   -0.1904100    0.0451523
  Z      -0.1822449    0.9726931    0.1437181

Note: Tensor is right-handed


 Quadrupole tensor eigenvalues (in MHz;Q= 0.0029 I=  1.0)
  e**2qQ            =     0.195341 MHz 
  e**2qQ/(4I*(2I-1))=     0.048835 MHz 
  eta               =     0.035435
  NOTE: the diagonal representation of the SH term I*Q*I = e**2qQ/(4I(2I-1))*[-(1-eta),-(1+eta),2]

 RHO(0)=      0.443876848 a.u.**-3

 -----------------------------------------------------------
 Nucleus  39H : A:ISTP=    1 I=  0.5 P=533.5514 MHz/au**3
                Q:ISTP=    2 I=  1.0 Q=  0.0029 barn     
 -----------------------------------------------------------
 Solving for nuclear perturbation:
Forming RHS of the CP-SCF equations         ... 
Calc. nucleus orbit integrals (SHARK)       ... done

------------------------------------------------------------------------------
                           ORCA CP-SCF CALCULATION
------------------------------------------------------------------------------

Input orbitals are from        ... input_101.gbw
Input Perturbation             ... input_101.pin.tmp
Wavefunction output            ... input_101.pout.tmp
Perturbation mode              ... Imaginary perturbation
Solver                         ... POPLE
Max. number of iterations      ... 64
Convergence tolerance          ... 1.000e-03
Integral handling              ... Direct
DFT GridXC                     ... 1
COSX GridX                     ... 1
COSX IntAccX                   ... 3.067
COSX Algorithm                 ... Auto
Number of perturbations        ... 3
Number of operators            ... 2
Orbital ranges used for CP-SCF:
 Operator 0:  Orbitals   0...160  to 161...680
 Operator 1:  Orbitals   0...159  to 160...680
Variables per perturbation     ... 167080
DFT calculation                         ... on
XC functional terms                     ... off
Hybrid DFT                              ... on
   Exchange mixing (SCF)                ...  0.200
   Exchange mixing (CP-SCF)             ...  0.200
   GGA exch. scaling(SCF)               ...  0.720
   GGA exch. scaling (CP-SCF)           ...  0.720
   GGA corr. scaling (SCF)              ...  0.810
   GGA corr. scaling (CP-SCF)           ...  0.810

CP-SCF GRID
-----------

General Integration Accuracy     IntAcc      ... 3.467
Radial Grid Type                 RadialGrid  ... OptM3 with GC (2021)
Angular Grid (max. ang.)         AngularGrid ... 1 (Lebedev-50)
Angular grid pruning method      GridPruning ... 4 (adaptive)
Weight generation scheme         WeightScheme... Becke
Basis function cutoff            BFCut       ... 1.0000e-10
Integration weight cutoff        WCut        ... 1.0000e-14
Angular grids for H and He will be reduced by one unit
Partially contracted basis set               ... off
Rotationally invariant grid construction     ... off

Total number of grid points                  ...    39352
Total number of batches                      ...      637
Average number of points per batch           ...       61
Average number of grid points per atom       ...      984

CP-SCF GRIDX
------------

General Integration Accuracy     IntAcc      ... 3.067
Radial Grid Type                 RadialGrid  ... OptM3 with GC (2021)
Angular Grid (max. ang.)         AngularGrid ... 1 (Lebedev-50)
Angular grid pruning method      GridPruning ... 4 (adaptive)
Weight generation scheme         WeightScheme... Becke
Basis function cutoff            BFCut       ... 1.0000e-10
Integration weight cutoff        WCut        ... 1.0000e-14
Angular grids for H and He will be reduced by one unit
Partially contracted basis set               ... on
Rotationally invariant grid construction     ... off

Total number of grid points                  ...    17781
Total number of batches                      ...      301
Average number of points per batch           ...       59
Average number of grid points per atom       ...      445

Memory available               ... 819.8 MB
Memory needed per perturbation ...  41.3 MB
Perturbations treated per batch... 3
Number of batches              ... 1
     CP-SCF ITERATION   0:   4.4273e-02 (   4.8 sec   0/  3 done)
     CP-SCF ITERATION   1:   1.5502e-03 (   4.9 sec   1/  3 done)
     CP-SCF ITERATION   2:   1.6692e-04 (   4.0 sec   3/  3 done)
                    *** THE CP-SCF HAS CONVERGED ***

Forming final perturbed densities           ... done
Transforming perturbed density to AO basis  ... done

 Raw HFC matrix (all values in MHz): 
 -----------------------------------
                 0.0612              -0.1915               0.0362
                -0.1917               0.0502              -0.0345
                 0.0361              -0.0340              -0.1259

 A(FC)          -0.0053              -0.0053              -0.0053
 A(SD)          -0.1290              -0.1317               0.2608
 A(ORB+DIA)      0.0020               0.0010              -0.0015    A(PC) =   0.0005
 A(ORB)          0.0021               0.0010              -0.0016    A(PC) =   0.0005
 A(DIA)         -0.0000              -0.0000               0.0000    A(PC) =  -0.0000
             ----------           ----------           ----------
 A(Tot)         -0.1323              -0.1361               0.2539    A(iso)=   -0.0048
 Orientation: 
  X           0.0009893            0.7029163           -0.7112719
  Y           0.1868414            0.6986168            0.6906698
  Z           0.9823896           -0.1335783           -0.1306427

Notes:  (1) The A matrix conforms to the "SAI" spin Hamiltonian convention.
        (2) Tensor is right-handed.

 Raw EFG matrix (all values in a.u.**-3):
 -----------------------------------
            -0.0613      -0.0094       0.1706
            -0.0094      -0.1408      -0.0222
             0.1706      -0.0222       0.2021

 V(El)       0.6373       0.4522      -1.0895
 V(Nuc)     -0.7789      -0.5979       1.3768
         ----------   ----------   ----------
 V(Tot)     -0.1416      -0.1457       0.2873 
 Orientation: 
  X       0.3494318   -0.8272173    0.4400102
  Y       0.9300720    0.3630809   -0.0560213
  Z      -0.1134175    0.4288168    0.8962436

Note: Tensor is right-handed


 Quadrupole tensor eigenvalues (in MHz;Q= 0.0029 I=  1.0)
  e**2qQ            =     0.192900 MHz 
  e**2qQ/(4I*(2I-1))=     0.048225 MHz 
  eta               =     0.014060
  NOTE: the diagonal representation of the SH term I*Q*I = e**2qQ/(4I(2I-1))*[-(1-eta),-(1+eta),2]

 RHO(0)=      0.442285014 a.u.**-3

 -----------------------------------------------------------
 Nucleus   0V : A:ISTP=   51 I=  3.5 P=140.5173 MHz/au**3
                Q:ISTP=   51 I=  3.5 Q= -0.0430 barn     
 -----------------------------------------------------------
 Solving for nuclear perturbation:
Forming RHS of the CP-SCF equations         ... 
Calc. nucleus orbit integrals (SHARK)       ... done

------------------------------------------------------------------------------
                           ORCA CP-SCF CALCULATION
------------------------------------------------------------------------------

Input orbitals are from        ... input_101.gbw
Input Perturbation             ... input_101.pin.tmp
Wavefunction output            ... input_101.pout.tmp
Perturbation mode              ... Imaginary perturbation
Solver                         ... POPLE
Max. number of iterations      ... 64
Convergence tolerance          ... 1.000e-03
Integral handling              ... Direct
DFT GridXC                     ... 1
COSX GridX                     ... 1
COSX IntAccX                   ... 3.067
COSX Algorithm                 ... Auto
Number of perturbations        ... 3
Number of operators            ... 2
Orbital ranges used for CP-SCF:
 Operator 0:  Orbitals   0...160  to 161...680
 Operator 1:  Orbitals   0...159  to 160...680
Variables per perturbation     ... 167080
DFT calculation                         ... on
XC functional terms                     ... off
Hybrid DFT                              ... on
   Exchange mixing (SCF)                ...  0.200
   Exchange mixing (CP-SCF)             ...  0.200
   GGA exch. scaling(SCF)               ...  0.720
   GGA exch. scaling (CP-SCF)           ...  0.720
   GGA corr. scaling (SCF)              ...  0.810
   GGA corr. scaling (CP-SCF)           ...  0.810

CP-SCF GRID
-----------

General Integration Accuracy     IntAcc      ... 3.467
Radial Grid Type                 RadialGrid  ... OptM3 with GC (2021)
Angular Grid (max. ang.)         AngularGrid ... 1 (Lebedev-50)
Angular grid pruning method      GridPruning ... 4 (adaptive)
Weight generation scheme         WeightScheme... Becke
Basis function cutoff            BFCut       ... 1.0000e-10
Integration weight cutoff        WCut        ... 1.0000e-14
Angular grids for H and He will be reduced by one unit
Partially contracted basis set               ... off
Rotationally invariant grid construction     ... off

Total number of grid points                  ...    39352
Total number of batches                      ...      637
Average number of points per batch           ...       61
Average number of grid points per atom       ...      984

CP-SCF GRIDX
------------

General Integration Accuracy     IntAcc      ... 3.067
Radial Grid Type                 RadialGrid  ... OptM3 with GC (2021)
Angular Grid (max. ang.)         AngularGrid ... 1 (Lebedev-50)
Angular grid pruning method      GridPruning ... 4 (adaptive)
Weight generation scheme         WeightScheme... Becke
Basis function cutoff            BFCut       ... 1.0000e-10
Integration weight cutoff        WCut        ... 1.0000e-14
Angular grids for H and He will be reduced by one unit
Partially contracted basis set               ... on
Rotationally invariant grid construction     ... off

Total number of grid points                  ...    17781
Total number of batches                      ...      301
Average number of points per batch           ...       59
Average number of grid points per atom       ...      445

Memory available               ... 817.7 MB
Memory needed per perturbation ...  41.3 MB
Perturbations treated per batch... 3
Number of batches              ... 1
     CP-SCF ITERATION   0:   1.1524e+01 (   5.2 sec   0/  3 done)
     CP-SCF ITERATION   1:   1.8330e+00 (   5.0 sec   0/  3 done)
     CP-SCF ITERATION   2:   3.1701e-01 (   4.9 sec   0/  3 done)
     CP-SCF ITERATION   3:   3.7376e-02 (   5.1 sec   0/  3 done)
     CP-SCF ITERATION   4:   6.4525e-03 (   5.0 sec   0/  3 done)
     CP-SCF ITERATION   5:   1.4493e-03 (   5.0 sec   0/  3 done)
     CP-SCF ITERATION   6:   2.9656e-04 (   5.0 sec   3/  3 done)
                    *** THE CP-SCF HAS CONVERGED ***

Forming final perturbed densities           ... done
Transforming perturbed density to AO basis  ... done

 Raw HFC matrix (all values in MHz): 
 -----------------------------------
               -86.7037             -20.0754             -31.7625
               -19.7017            -167.7634            -127.2054
               -31.3713            -127.9562            -272.5885

 A(FC)        -163.4516            -163.4516            -163.4516
 A(SD)          88.7150              87.3052            -176.0202
 A(ORB+DIA)     -6.2822              -6.7557             -23.6628    A(PC) = -12.2336
 A(ORB)         -6.2818              -6.7561             -23.6626    A(PC) = -12.2335
 A(DIA)         -0.0003               0.0004              -0.0002    A(PC) =  -0.0000
             ----------           ----------           ----------
 A(Tot)        -81.0188             -82.9022            -363.1346    A(iso)= -175.6852
 Orientation: 
  X          -0.9160081            0.3778415            0.1347774
  Y          -0.2476921           -0.7969842            0.5508764
  Z           0.3155594            0.4712240            0.8236323

Notes:  (1) The A matrix conforms to the "SAI" spin Hamiltonian convention.
        (2) Tensor is right-handed.

 Raw EFG matrix (all values in a.u.**-3):
 -----------------------------------
            -0.0983       0.0633       0.0278
             0.0633      -0.0643       0.1337
             0.0278       0.1337       0.1626

 V(El)       0.1608      -0.4584       0.2976
 V(Nuc)     -0.2309       0.2958      -0.0649
         ----------   ----------   ----------
 V(Tot)     -0.0701      -0.1626       0.2327 
 Orientation: 
  X       0.7678183    0.6210763   -0.1572237
  Y       0.5115811   -0.7420929   -0.4331084
  Z      -0.3856680    0.2521159   -0.8875234

Note: Tensor is right-handed


 Quadrupole tensor eigenvalues (in MHz;Q=-0.0430 I=  3.5)
  e**2qQ            =    -2.351507 MHz 
  e**2qQ/(4I*(2I-1))=    -0.027994 MHz 
  eta               =     0.397595
  NOTE: the diagonal representation of the SH term I*Q*I = e**2qQ/(4I(2I-1))*[-(1-eta),-(1+eta),2]

 RHO(0)=   8115.264350127 a.u.**-3


--------------------------------------------------------------------------------
----------------------------------------------------------------------------
                           ORCA EULER ANGLE PROGRAM
----------------------------------------------------------------------------

Only g-tensor available        -->  using g-tensor as reference tensor

Reference tensor               ...  g

g-tensor ordering              ...  |g_min> --> |gx>
                                    |g_mid> --> |gy>
                                    |g_max> --> |gz>

A- and EFG-tensor ordering     ...  the axes |Ax>, |Qx>, |Ay>, etc. are assigned
                                    such that the Euler rotation is minimal. You
                                    can find the respective eigenvalues as Ax,
                                    EFGx, Ay, etc. in the tables below.
                                    The relation of |Ax>, |Ay>,  etc. to Amin, Amid, etc.
                                    (as printed in the ORCA EPR/NMR CALCULATION Output)
                                    is obtained in the detailed printout.

Euler rotation around          ...  z - y - z
   First rotation              -->  by alpha around z
   Second rotation             -->  by beta around y'
   Third rotation              -->  by gamma around z''
   Positive / Negative angle   -->  clockwise / counterclockwise rotation

Plot EFG-tensors                    (-)
Plot HFC-tensors                    (-)
Detailed Printout                   (-)

-------------------------------------------------------------------------
          Euler rotation of hyperfine tensor to g-tensor
-------------------------------------------------------------------------

-------------------------------------------------------------------
 Atom  |   Alpha    Beta    Gamma   |   Ax       Ay       Az 
       |          [degrees]         |           [MHz]         
-------------------------------------------------------------------
 25H      -91.2      8.6    121.3      -0.12     0.30    -0.13
 26H     -158.7     38.9   -174.1      -0.06     0.22    -0.07
 27H       13.6      3.2     13.3      -0.08     0.14    -0.09
 28H       20.1      1.9     -4.3      -0.09     0.16    -0.10
 29H      158.0     42.1   -141.3      -0.07     0.22    -0.06
 30H       55.0     12.6    -24.8      -0.12     0.29    -0.13
 34H     -148.2     13.0    152.9      -0.13     0.25    -0.14
 35H     -150.4     23.0    150.5      -0.07     0.17    -0.07
 36H       10.3      9.6    -18.2      -0.07     0.14    -0.07
 37H       12.0     11.1     -9.9      -0.06     0.14    -0.06
 38H       50.3     20.0    -52.1      -0.07     0.17    -0.07
 39H       30.8     23.1    -25.8      -0.13     0.25    -0.14
  0V      -89.3     14.8     81.9    -363.13   -82.90   -81.02
-------------------------------------------------------------------


-------------------------------------------------------------------------------
    Euler rotation of Electric Field Gradient (EFG) tensor to g-tensor
-------------------------------------------------------------------------------

-------------------------------------------------------------------
 Atom  |   Alpha    Beta    Gamma  |   EFGx     EFGy     EFGz
       |          [degrees]        |         [a.u.**-3]       
-------------------------------------------------------------------
 25H      176.2     36.4    146.6     -0.15     0.29    -0.14
 26H       33.4     36.3    -68.4     -0.14    -0.15     0.29
 27H      -12.0      1.0     -6.7      0.28    -0.15    -0.14
 28H      -36.9      1.0      1.4     -0.15     0.29    -0.14
 29H     -143.4     35.6    108.7     -0.14    -0.15     0.29
 30H       -5.6     38.0    -32.2     -0.15     0.29    -0.14
 34H      -90.5     35.5    122.8      0.29    -0.15    -0.14
 35H      122.6     39.2    -87.3     -0.15    -0.14     0.29
 36H       68.4      4.1    -35.3      0.29    -0.15    -0.14
 37H       -4.5      4.0    -35.6      0.28    -0.15    -0.14
 38H      -46.1     34.7     83.3     -0.15    -0.14     0.29
 39H       84.9     42.8    -53.8      0.29    -0.15    -0.14
  0V       40.5      4.9    -41.1      0.23    -0.16    -0.07
-------------------------------------------------------------------


Maximum memory used throughout the entire EPRNMR-calculation: 307.9 MB

Timings for individual modules:

Sum of individual times         ...     3929.536 sec (=  65.492 min)
GTO integral calculation        ...        1.475 sec (=   0.025 min)   0.0 %
Spin-Orbit-Coupling Matrices    ...       10.384 sec (=   0.173 min)   0.3 %
SCF iterations                  ...      401.548 sec (=   6.692 min)  10.2 %
EPR/NMR calculation             ...     3516.128 sec (=  58.602 min)  89.5 %
                             ****ORCA TERMINATED NORMALLY****
TOTAL RUN TIME: 0 days 1 hours 5 minutes 30 seconds 736 msec
