
                                 *****************
                                 * O   R   C   A *
                                 *****************

                                            #,                                       
                                            ###                                      
                                            ####                                     
                                            #####                                    
                                            ######                                   
                                           ########,                                 
                                     ,,################,,,,,                         
                               ,,#################################,,                 
                          ,,##########################################,,             
                       ,#########################################, ''#####,          
                    ,#############################################,,   '####,        
                  ,##################################################,,,,####,       
                ,###########''''           ''''###############################       
              ,#####''   ,,,,##########,,,,          '''####'''          '####       
            ,##' ,,,,###########################,,,                        '##       
           ' ,,###''''                  '''############,,,                           
         ,,##''                                '''############,,,,        ,,,,,,###''
      ,#''                                            '''#######################'''  
     '                                                          ''''####''''         
             ,#######,   #######,   ,#######,      ##                                
            ,#'     '#,  ##    ##  ,#'     '#,    #''#        ######   ,####,        
            ##       ##  ##   ,#'  ##            #'  '#       #        #'  '#        
            ##       ##  #######   ##           ,######,      #####,   #    #        
            '#,     ,#'  ##    ##  '#,     ,#' ,#      #,         ##   #,  ,#        
             '#######'   ##     ##  '#######'  #'      '#     #####' # '####'        



                  #######################################################
                  #                        -***-                        #
                  #          Department of theory and spectroscopy      #
                  #    Directorship and core code : Frank Neese         #
                  #        Max Planck Institute fuer Kohlenforschung    #
                  #                Kaiser Wilhelm Platz 1               #
                  #                 D-45470 Muelheim/Ruhr               #
                  #                      Germany                        #
                  #                                                     #
                  #                  All rights reserved                #
                  #                        -***-                        #
                  #######################################################


                         Program Version 5.0.4 -  RELEASE  -


 With contributions from (in alphabetic order):
   Daniel Aravena         : Magnetic Suceptibility
   Michael Atanasov       : Ab Initio Ligand Field Theory (pilot matlab implementation)
   Alexander A. Auer      : GIAO ZORA, VPT2 properties, NMR spectrum
   Ute Becker             : Parallelization
   Giovanni Bistoni       : ED, misc. LED, open-shell LED, HFLD
   Martin Brehm           : Molecular dynamics
   Dmytro Bykov           : SCF Hessian
   Vijay G. Chilkuri      : MRCI spin determinant printing, contributions to CSF-ICE
   Dipayan Datta          : RHF DLPNO-CCSD density
   Achintya Kumar Dutta   : EOM-CC, STEOM-CC
   Dmitry Ganyushin       : Spin-Orbit,Spin-Spin,Magnetic field MRCI
   Miquel Garcia          : C-PCM and meta-GGA Hessian, CC/C-PCM, Gaussian charge scheme
   Yang Guo               : DLPNO-NEVPT2, F12-NEVPT2, CIM, IAO-localization
   Andreas Hansen         : Spin unrestricted coupled pair/coupled cluster methods
   Benjamin Helmich-Paris : MC-RPA, TRAH-SCF, COSX integrals
   Lee Huntington         : MR-EOM, pCC
   Robert Izsak           : Overlap fitted RIJCOSX, COSX-SCS-MP3, EOM
   Marcus Kettner         : VPT2
   Christian Kollmar      : KDIIS, OOCD, Brueckner-CCSD(T), CCSD density, CASPT2, CASPT2-K
   Simone Kossmann        : Meta GGA functionals, TD-DFT gradient, OOMP2, MP2 Hessian
   Martin Krupicka        : Initial AUTO-CI
   Lucas Lang             : DCDCAS
   Marvin Lechner         : AUTO-CI (C++ implementation), FIC-MRCC
   Dagmar Lenk            : GEPOL surface, SMD
   Dimitrios Liakos       : Extrapolation schemes; Compound Job, initial MDCI parallelization
   Dimitrios Manganas     : Further ROCIS development; embedding schemes
   Dimitrios Pantazis     : SARC Basis sets
   Anastasios Papadopoulos: AUTO-CI, single reference methods and gradients
   Taras Petrenko         : DFT Hessian,TD-DFT gradient, ASA, ECA, R-Raman, ABS, FL, XAS/XES, NRVS
   Peter Pinski           : DLPNO-MP2, DLPNO-MP2 Gradient
   Christoph Reimann      : Effective Core Potentials
   Marius Retegan         : Local ZFS, SOC
   Christoph Riplinger    : Optimizer, TS searches, QM/MM, DLPNO-CCSD(T), (RO)-DLPNO pert. Triples
   Tobias Risthaus        : Range-separated hybrids, TD-DFT gradient, RPA, STAB
   Michael Roemelt        : Original ROCIS implementation
   Masaaki Saitow         : Open-shell DLPNO-CCSD energy and density
   Barbara Sandhoefer     : DKH picture change effects
   Avijit Sen             : IP-ROCIS
   Kantharuban Sivalingam : CASSCF convergence, NEVPT2, FIC-MRCI
   Bernardo de Souza      : ESD, SOC TD-DFT
   Georgi Stoychev        : AutoAux, RI-MP2 NMR, DLPNO-MP2 response
   Willem Van den Heuvel  : Paramagnetic NMR
   Boris Wezisla          : Elementary symmetry handling
   Frank Wennmohs         : Technical directorship


 We gratefully acknowledge several colleagues who have allowed us to
 interface, adapt or use parts of their codes:
   Stefan Grimme, W. Hujo, H. Kruse, P. Pracht,  : VdW corrections, initial TS optimization,
                  C. Bannwarth, S. Ehlert          DFT functionals, gCP, sTDA/sTD-DF
   Ed Valeev, F. Pavosevic, A. Kumar             : LibInt (2-el integral package), F12 methods
   Garnet Chan, S. Sharma, J. Yang, R. Olivares  : DMRG
   Ulf Ekstrom                                   : XCFun DFT Library
   Mihaly Kallay                                 : mrcc  (arbitrary order and MRCC methods)
   Jiri Pittner, Ondrej Demel                    : Mk-CCSD
   Frank Weinhold                                : gennbo (NPA and NBO analysis)
   Christopher J. Cramer and Donald G. Truhlar   : smd solvation model
   Lars Goerigk                                  : TD-DFT with DH, B97 family of functionals
   V. Asgeirsson, H. Jonsson                     : NEB implementation
   FAccTs GmbH                                   : IRC, NEB, NEB-TS, DLPNO-Multilevel, CI-OPT
                                                   MM, QMMM, 2- and 3-layer-ONIOM, Crystal-QMMM,
                                                   LR-CPCM, SF, NACMEs, symmetry and pop. for TD-DFT,
                                                   nearIR, NL-DFT gradient (VV10), updates on ESD,
                                                   ML-optimized integration grids
   S Lehtola, MJT Oliveira, MAL Marques          : LibXC Library
   Liviu Ungur et al                             : ANISO software


 Your calculation uses the libint2 library for the computation of 2-el integrals
 For citations please refer to: http://libint.valeyev.net

 Your ORCA version has been built with support for libXC version: 5.1.0
 For citations please refer to: https://tddft.org/programs/libxc/

 This ORCA versions uses:
   CBLAS   interface :  Fast vector & matrix operations
   LAPACKE interface :  Fast linear algebra routines
   SCALAPACK package :  Parallel linear algebra routines
   Shared memory     :  Shared parallel matrices
   BLAS/LAPACK       :  OpenBLAS 0.3.15  USE64BITINT DYNAMIC_ARCH NO_AFFINITY Prescott SINGLE_THREADED
        Core in use  :  Prescott
   Copyright (c) 2011-2014, The OpenBLAS Project


================================================================================

----- Orbital basis set information -----
Your calculation utilizes the basis: TZVP 

The basis set includes element-specific modifications.

Your calculation utilizes the basis: CP(PPP) 

----- AuxJ basis set information -----
Your calculation utilizes the auxiliary basis: def2/J
   F. Weigend, Phys. Chem. Chem. Phys. 8, 1057 (2006).

================================================================================
                                        WARNINGS
                       Please study these warnings very carefully!
================================================================================


WARNING: your system is open-shell and RHF/RKS was chosen
  ===> : WILL SWITCH to UHF/UKS


INFO   : the flag for use of the SHARK integral package has been found!

================================================================================
                                       INPUT FILE
================================================================================
NAME = input_104.inp
|  1> ! nofrozencore ReducedPop printbasis
|  2> ! B3LYP TZVP
|  3> 
|  4> %basis
|  5> newgto V "CP(PPP)" end
|  6> end
|  7> 
|  8> %pal
|  9> nprocs 8
| 10> end
| 11> 
| 12> % sym SymThresh 1e-2 end
| 13> * xyz -2 2 
| 14> V -0.07544197468525508 0.0488135039320958 -1.109451254405736
| 15> S 2.355341444950759 -0.3010854523872971 -0.8129833226032435
| 16> S -0.30993007069057665 -2.3232901810331366 -0.44228155555680987
| 17> S 0.3537225320528622 2.384321707932234 -0.4078127662864768
| 18> S -2.234135096476562 0.3876468204924997 0.03518419296673696
| 19> O -0.35940402217746686 0.07561246032639138 -2.6724476590824096
| 20> C -2.0384534404854975 -2.359594462843949 -0.11938449836982924
| 21> C -2.808492290206919 -1.272739277154321 0.0752957237696439
| 22> C 2.908685464737587 1.348488308777567 -0.5592569723584203
| 23> C 2.1095233852501387 2.418607010782606 -0.39475375119436984
| 24> S -2.8539655139787614 -3.952347982547523 0.04258523949066073
| 25> S -4.530383652955835 -1.5718620498658473 0.48338921273761554
| 26> S 2.9262770073197952 3.989715291651331 -0.09450758491274255
| 27> S 4.677039229605514 1.6501299547805561 -0.4609059537920791
| 28> C -4.459271957030197 -3.3377433600573716 0.4569452572497194
| 29> C 4.584093415331911 3.377561712446025 -0.09674144389193953
| 30> C -5.535454190327694 -4.139600396623924 0.7180015848392242
| 31> C 5.678948257670995 4.159800891808335 0.14730441803003885
| 32> S -5.43522802398295 -5.916635851562025 0.62509474363917
| 33> S -7.130429562654539 -3.4633539508384064 1.136394891021694
| 34> S 7.332493958017056 3.495834656716536 0.13698965433545676
| 35> S 5.529609714334061 5.89407076675725 0.5310923985918018
| 36> C 6.2250051470810295 5.850774321087875 2.247705786767793
| 37> C 7.764111952899362 3.8130765272934215 1.9102496898338206
| 38> C 7.6484902545968705 5.2864207914570684 2.3157640579981686
| 39> H 5.561899374184564 5.285069323509815 2.858047588608851
| 40> H 6.211875436843347 6.8631092857842235 2.5857893206929403
| 41> H 8.002450624804835 5.381862148867839 3.3526812627830207
| 42> H 8.292118563107712 5.874316396317319 1.7044318120373732
| 43> H 8.776862752799419 3.475601700174335 2.021932625807674
| 44> H 7.135618843757305 3.198760091733518 2.5200291517763533
| 45> C -8.08019304971182 -4.116511916628036 -0.2990286677815431
| 46> C -6.651131023332743 -6.175350770794154 -0.7368062921038433
| 47> C -8.031039490362904 -5.61317444975794 -0.4805018874408342
| 48> H -6.147811960897766 -5.653247481601163 -1.8251889554743315
| 49> H -6.6997302169921005 -7.440294339684312 -0.9086719332980208
| 50> H -8.53197373721601 -6.202615160026172 0.6618539803701539
| 51> H -8.69968501737191 -5.905417368282608 -1.296623179849035
| 52> H -9.334573814513865 -3.7015872832677434 -0.10732438455744923
| 53> H -7.616447310111895 -3.4918172265454293 -1.4204028755884273
| 54> * 
| 55> 
| 56> % eprnmr
| 57> gtensor true
| 58> Nuclei = all H {aiso,adip,aorb,fgrad,rho}
| 59> Nuclei = all V {aiso,adip,aorb,fgrad,rho}
| 60> end
| 61> 
| 62>                          ****END OF INPUT****
================================================================================

------------------------------------------------------------------------------
                            SYMMETRY HANDLING SETUP
------------------------------------------------------------------------------

------------------
SYMMETRY DETECTION
------------------
The point group will now be determined using a tolerance of 1.0000e-02.
Splitting atom subsets according to nuclear charge, mass and basis set.
Splitting atom subsets according to distance from the molecule's center.
Identifying relative distance patterns of the atoms.
Splitting atom subsets according to atoms' relative distance patterns.
Bring atoms of each subset into input order.
The molecule is neither linear nor planar.
There is at least one atom subset not centered around the molecule's center.
The molecule does not have a center of inversion.
Analyzing the first atom subset for its symmetry.
The subset consists of a single off-center atom.
No testing is needed for point group C1.
This point group has been found:    C1
Largest non-degenerate subgroup:    C1


Mass-centered symmetry-perfected Cartesians (point group C1):

Atom          Symmetry-perfected Cartesians (x, y, z; au)
  0      -0.145308246238    0.089282655493   -2.090543110771
  1       4.448206707751   -0.571930546495   -1.530299912174
  2      -0.588426529353   -4.393343670356   -0.829775095095
  3       0.665695137897    4.502753544580   -0.764638523207
  4      -4.224647053603    0.729584828841    0.072504407942
  5      -0.681918748426    0.139925343753   -5.044178263913
  6      -3.854862314348   -4.461948820468   -0.219588087563
  7      -5.310024852801   -2.408090172282    0.148304215972
  8       5.493875362991    2.545312099809   -1.050826597252
  9       3.983677896145    4.567543377386   -0.739960561104
 10      -5.395956792156   -7.471816771547    0.086490358976
 11      -8.563927960761   -2.973350293126    0.919489147158
 12       5.527118560745    7.536507754963   -0.172577534072
 13       8.835579686480    3.115332201340   -0.864970107169
 14      -8.429546330543   -6.310382354398    0.869517313388
 15       8.659937552209    6.379705138366   -0.176798915764
 16     -10.463236021667   -7.825672552067    1.362842278059
 17      10.728913360627    7.857922958584    0.284380927385
 18     -10.273836015822  -11.183782892168    1.187273792223
 19     -13.477302665713   -6.547751970494    2.153491043010
 20      13.853661884204    6.603208612089    0.264888848866
 21      10.446704412481   11.135218064547    1.009635104138
 22      11.760811335153   11.053399639660    4.253564285613
 23      14.669301689004    7.202708865693    3.615864680186
 24      14.450808344073    9.986926025946    4.382175779386
 25      10.507723026556    9.984372121646    5.406943139176
 26      11.735999778586   12.966435478729    4.892449575120
 27      15.119696506028   10.167284053302    6.341665319981
 28      15.667089579198   11.097887714467    3.226925257685
 29      16.583123342725    6.564973865345    3.826914843008
 30      13.481621835669    6.041819042918    4.768180865347
 31     -15.272095548250   -7.782041648026   -0.559066369307
 32     -12.571559690007  -11.672683236276   -1.386346186835
 33     -15.179208782573  -10.610323950542   -0.902001055104
 34     -11.620424504023  -10.686051006082   -3.443091349513
 35     -12.663398856352  -14.063080156343   -1.711125180522
 36     -16.125837320227  -11.724205465133    1.256738682537
 37     -16.442765709291  -11.162583031132   -2.444246789817
 38     -17.642531661384   -6.997947724757   -0.196797775314
 39     -14.395743104633   -6.601539766455   -2.678156515705


------------------
SYMMETRY REDUCTION
------------------
ORCA supports only abelian point groups.
It is now checked, if the determined point group is supported:
Point Group ( C1    ) is          ... supported

The point group is C1 - hence turning off symmetry
If this is a round-off problem, please increase the symmetry
        detection tolerance (%method SymThresh)

Storing the symmetry object:
Symmetry file                     ... input_104.sym.tmp
Writing symmetry information      ... done

                       ****************************
                       * Single Point Calculation *
                       ****************************

---------------------------------
CARTESIAN COORDINATES (ANGSTROEM)
---------------------------------
  V     -0.076894    0.047246   -1.106268
  S      2.353890   -0.302653   -0.809800
  S     -0.311382   -2.324857   -0.439098
  S      0.352271    2.382755   -0.404629
  S     -2.235587    0.386080    0.038368
  O     -0.360856    0.074045   -2.669264
  C     -2.039905   -2.361162   -0.116201
  C     -2.809944   -1.274306    0.078479
  C      2.907234    1.346921   -0.556073
  C      2.108072    2.417040   -0.391570
  S     -2.855417   -3.953915    0.045769
  S     -4.531835   -1.573429    0.486573
  S      2.924825    3.988148   -0.091324
  S      4.675587    1.648563   -0.457722
  C     -4.460724   -3.339311    0.460129
  C      4.582642    3.375995   -0.093558
  C     -5.536906   -4.141168    0.721185
  C      5.677496    4.158234    0.150488
  S     -5.436680   -5.918203    0.628278
  S     -7.131881   -3.464921    1.139578
  S      7.331042    3.494267    0.140173
  S      5.528158    5.892504    0.534276
  C      6.223553    5.849207    2.250889
  C      7.762660    3.811509    1.913433
  C      7.647038    5.284854    2.318948
  H      5.560448    5.283502    2.861231
  H      6.210424    6.861542    2.588973
  H      8.000999    5.380295    3.355865
  H      8.290667    5.872749    1.707615
  H      8.775411    3.474035    2.025116
  H      7.134167    3.197193    2.523213
  C     -8.081645   -4.118079   -0.295845
  C     -6.652583   -6.176918   -0.733623
  C     -8.032491   -5.614742   -0.477318
  H     -6.149264   -5.654815   -1.822005
  H     -6.701182   -7.441861   -0.905488
  H     -8.533426   -6.204182    0.665037
  H     -8.701137   -5.906985   -1.293440
  H     -9.336026   -3.703154   -0.104141
  H     -7.617899   -3.493384   -1.417219

----------------------------
CARTESIAN COORDINATES (A.U.)
----------------------------
  NO LB      ZA    FRAG     MASS         X           Y           Z
   0 V    23.0000    0    50.940   -0.145308    0.089283   -2.090543
   1 S    16.0000    0    32.060    4.448207   -0.571931   -1.530300
   2 S    16.0000    0    32.060   -0.588427   -4.393344   -0.829775
   3 S    16.0000    0    32.060    0.665695    4.502754   -0.764639
   4 S    16.0000    0    32.060   -4.224647    0.729585    0.072504
   5 O     8.0000    0    15.999   -0.681919    0.139925   -5.044178
   6 C     6.0000    0    12.011   -3.854862   -4.461949   -0.219588
   7 C     6.0000    0    12.011   -5.310025   -2.408090    0.148304
   8 C     6.0000    0    12.011    5.493875    2.545312   -1.050827
   9 C     6.0000    0    12.011    3.983678    4.567543   -0.739961
  10 S    16.0000    0    32.060   -5.395957   -7.471817    0.086490
  11 S    16.0000    0    32.060   -8.563928   -2.973350    0.919489
  12 S    16.0000    0    32.060    5.527119    7.536508   -0.172578
  13 S    16.0000    0    32.060    8.835580    3.115332   -0.864970
  14 C     6.0000    0    12.011   -8.429546   -6.310382    0.869517
  15 C     6.0000    0    12.011    8.659938    6.379705   -0.176799
  16 C     6.0000    0    12.011  -10.463236   -7.825673    1.362842
  17 C     6.0000    0    12.011   10.728913    7.857923    0.284381
  18 S    16.0000    0    32.060  -10.273836  -11.183783    1.187274
  19 S    16.0000    0    32.060  -13.477303   -6.547752    2.153491
  20 S    16.0000    0    32.060   13.853662    6.603209    0.264889
  21 S    16.0000    0    32.060   10.446704   11.135218    1.009635
  22 C     6.0000    0    12.011   11.760811   11.053400    4.253564
  23 C     6.0000    0    12.011   14.669302    7.202709    3.615865
  24 C     6.0000    0    12.011   14.450808    9.986926    4.382176
  25 H     1.0000    0     1.008   10.507723    9.984372    5.406943
  26 H     1.0000    0     1.008   11.736000   12.966435    4.892450
  27 H     1.0000    0     1.008   15.119697   10.167284    6.341665
  28 H     1.0000    0     1.008   15.667090   11.097888    3.226925
  29 H     1.0000    0     1.008   16.583123    6.564974    3.826915
  30 H     1.0000    0     1.008   13.481622    6.041819    4.768181
  31 C     6.0000    0    12.011  -15.272096   -7.782042   -0.559066
  32 C     6.0000    0    12.011  -12.571560  -11.672683   -1.386346
  33 C     6.0000    0    12.011  -15.179209  -10.610324   -0.902001
  34 H     1.0000    0     1.008  -11.620425  -10.686051   -3.443091
  35 H     1.0000    0     1.008  -12.663399  -14.063080   -1.711125
  36 H     1.0000    0     1.008  -16.125837  -11.724205    1.256739
  37 H     1.0000    0     1.008  -16.442766  -11.162583   -2.444247
  38 H     1.0000    0     1.008  -17.642532   -6.997948   -0.196798
  39 H     1.0000    0     1.008  -14.395743   -6.601540   -2.678157

--------------------------------
INTERNAL COORDINATES (ANGSTROEM)
--------------------------------
 V      0   0   0     0.000000000000     0.00000000     0.00000000
 S      1   0   0     2.473667428616     0.00000000     0.00000000
 S      1   2   0     2.475272907470    85.71213930     0.00000000
 S      1   2   3     2.476101232342    85.93655681   148.62496193
 S      1   2   3     2.466770017221   145.46243633    75.87945410
 O      1   2   3     1.588807851665   107.21249834   255.26588231
 C      3   1   2     1.758798894230    99.34427074   165.57889907
 C      7   3   1     1.346147990985   124.89467991   342.87626557
 C      2   1   3     1.758311763757   101.17688887   202.40080924
 C      9   2   1     1.345687696104   125.22514133     8.19725644
 S      7   3   1     1.796707520028   118.74602503   165.81439594
 S      8   7   3     1.794693454048   116.56065592   183.45571245
 S     10   9   2     1.795999852379   116.48807803   177.93634753
 S      9   2   1     1.796590004197   118.37035353   186.34065348
 C     12   8   7     1.767510384061    97.15271512     0.25903457
 C     13  10   9     1.767227273820    97.08715028   358.18447969
 C     15  12   8     1.367221018172   123.46456421   179.54482088
 C     16  13  10     1.367539265339   123.55054853   182.70616074
 S     17  15  12     1.782282798455   122.04212804   177.81824697
 S     17  15  12     1.782220147015   121.78417870   359.18971789
 S     18  16  13     1.781900934066   121.92177117   179.89044858
 S     18  16  13     1.782494660218   121.86218269     1.33561607
 C     22  18  16     1.852622712416    98.35562996   116.56455367
 C     21  18  16     1.852400510540    98.44529727   243.26581046
 C     24  21  18     1.532499135612   113.60160346   302.61713896
 H     23  22  18     1.064071673060   108.05870957   294.26696966
 H     23  22  18     1.067377602327   105.46836724   178.55349727
 H     25  24  21     1.099815569066   107.97639443   184.59623397
 H     25  24  21     1.064709235746   109.46982577   301.20991692
 H     24  21  18     1.073324983323   105.40350232   181.82264155
 H     24  21  18     1.069681851508   108.08609309    66.15458284
 C     20  17  15     1.840952688906    98.28150149   117.57777063
 C     19  17  15     1.843943584934    98.12374436   242.66529637
 C     32  20  17     1.508425450569   115.40540541    56.32158142
 H     33  19  17     1.307860369123   107.74973415    66.49133242
 H     33  19  17     1.277490474612   105.27052224   180.80311809
 H     34  32  20     1.379620382320   108.20806128    59.09083804
 H     34  32  20     1.094781589240   109.55077992   174.63597012
 H     32  20  17     1.335059581697   105.21867802   178.86518304
 H     32  20  17     1.364838335023   107.63441529   292.89709499

---------------------------
INTERNAL COORDINATES (A.U.)
---------------------------
 V      0   0   0     0.000000000000     0.00000000     0.00000000
 S      1   0   0     4.674553986486     0.00000000     0.00000000
 S      1   2   0     4.677587901834    85.71213930     0.00000000
 S      1   2   3     4.679153208991    85.93655681   148.62496193
 S      1   2   3     4.661519767916   145.46243633    75.87945410
 O      1   2   3     3.002411719070   107.21249834   255.26588231
 C      3   1   2     3.323648234738    99.34427074   165.57889907
 C      7   3   1     2.543851038690   124.89467991   342.87626557
 C      2   1   3     3.322727691553   101.17688887   202.40080924
 C      9   2   1     2.542981207424   125.22514133     8.19725644
 S      7   3   1     3.395285155609   118.74602503   165.81439594
 S      8   7   3     3.391479122492   116.56065592   183.45571245
 S     10   9   2     3.393947857559   116.48807803   177.93634753
 S      9   2   1     3.395063082872   118.37035353   186.34065348
 C     12   8   7     3.340110564737    97.15271512     0.25903457
 C     13  10   9     3.339575563916    97.08715028   358.18447969
 C     15  12   8     2.583673288886   123.46456421   179.54482088
 C     16  13  10     2.584274688875   123.55054853   182.70616074
 S     17  15  12     3.368026382279   122.04212804   177.81824697
 S     17  15  12     3.367907988215   121.78417870   359.18971789
 S     18  16  13     3.367304763163   121.92177117   179.89044858
 S     18  16  13     3.368426742989   121.86218269     1.33561607
 C     22  18  16     3.500949555948    98.35562996   116.56455367
 C     21  18  16     3.500529655257    98.44529727   243.26581046
 C     24  21  18     2.896003666777   113.60160346   302.61713896
 H     23  22  18     2.010804048946   108.05870957   294.26696966
 H     23  22  18     2.017051349879   105.46836724   178.55349727
 H     25  24  21     2.078350223358   107.97639443   184.59623397
 H     25  24  21     2.012008867816   109.46982577   301.20991692
 H     24  21  18     2.028290271176   105.40350232   181.82264155
 H     24  21  18     2.021405749775   108.08609309    66.15458284
 C     20  17  15     3.478896407538    98.28150149   117.57777063
 C     19  17  15     3.484548381926    98.12374436   242.66529637
 C     32  20  17     2.850510995013   115.40540541    56.32158142
 H     33  19  17     2.471497919051   107.74973415    66.49133242
 H     33  19  17     2.414107135709   105.27052224   180.80311809
 H     34  32  20     2.607104691361   108.20806128    59.09083804
 H     34  32  20     2.068837380123   109.55077992   174.63597012
 H     32  20  17     2.522896981875   105.21867802   178.86518304
 H     32  20  17     2.579170670271   107.63441529   292.89709499

---------------------
BASIS SET INFORMATION
---------------------
There are 5 groups of distinct atoms

 Group   1 Type V   : 17s11p5d1f contracted to 17s7p3d1f pattern {11111111111111111/3311111/311/1}
 Group   2 Type S   : 14s9p1d contracted to 5s4p1d pattern {73211/6111/1}
 Group   3 Type O   : 11s6p1d contracted to 5s3p1d pattern {62111/411/1}
 Group   4 Type C   : 11s6p1d contracted to 5s3p1d pattern {62111/411/1}
 Group   5 Type H   : 5s1p contracted to 3s1p pattern {311/1}

Atom   0V    basis set group =>   1
Atom   1S    basis set group =>   2
Atom   2S    basis set group =>   2
Atom   3S    basis set group =>   2
Atom   4S    basis set group =>   2
Atom   5O    basis set group =>   3
Atom   6C    basis set group =>   4
Atom   7C    basis set group =>   4
Atom   8C    basis set group =>   4
Atom   9C    basis set group =>   4
Atom  10S    basis set group =>   2
Atom  11S    basis set group =>   2
Atom  12S    basis set group =>   2
Atom  13S    basis set group =>   2
Atom  14C    basis set group =>   4
Atom  15C    basis set group =>   4
Atom  16C    basis set group =>   4
Atom  17C    basis set group =>   4
Atom  18S    basis set group =>   2
Atom  19S    basis set group =>   2
Atom  20S    basis set group =>   2
Atom  21S    basis set group =>   2
Atom  22C    basis set group =>   4
Atom  23C    basis set group =>   4
Atom  24C    basis set group =>   4
Atom  25H    basis set group =>   5
Atom  26H    basis set group =>   5
Atom  27H    basis set group =>   5
Atom  28H    basis set group =>   5
Atom  29H    basis set group =>   5
Atom  30H    basis set group =>   5
Atom  31C    basis set group =>   4
Atom  32C    basis set group =>   4
Atom  33C    basis set group =>   4
Atom  34H    basis set group =>   5
Atom  35H    basis set group =>   5
Atom  36H    basis set group =>   5
Atom  37H    basis set group =>   5
Atom  38H    basis set group =>   5
Atom  39H    basis set group =>   5

-------------------------
BASIS SET IN INPUT FORMAT
-------------------------

 # Basis set for element : H 
 NewGTO H 
 S 3 
   1      34.0613410000      0.0254393168
   2       5.1235746000      0.1900859340
   3       1.1646626000      0.8524411390
 S 1 
   1       0.3272304100      1.0000000000
 S 1 
   1       0.1030724100      1.0000000000
 P 1 
   1       0.8000000000      1.0000000000
  end;

 # Basis set for element : C 
 NewGTO C 
 S 6 
   1   13575.3496820000      0.0006064601
   2    2035.2333680000      0.0046978985
   3     463.2256235900      0.0243324735
   4     131.2001959800      0.0973999560
   5      42.8530158900      0.3019558443
   6      15.5841857700      0.6623361013
 S 2 
   1       6.2067138500      0.6559530795
   2       2.5764896500      0.3758563390
 S 1 
   1       0.5769633900      1.0000000000
 S 1 
   1       0.2297283100      1.0000000000
 S 1 
   1       0.0951644400      1.0000000000
 P 4 
   1      34.6972322400      0.0113272290
   2       7.9582622800      0.0761696612
   3       2.3780826900      0.3019225154
   4       0.8143320800      0.7278502776
 P 1 
   1       0.2888754700      1.0000000000
 P 1 
   1       0.1005682400      1.0000000000
 D 1 
   1       0.8000000000      1.0000000000
  end;

 # Basis set for element : O 
 NewGTO O 
 S 6 
   1   27032.3826310000      0.0005722654
   2    4052.3871392000      0.0044353333
   3     922.3272271000      0.0230201034
   4     261.2407098900      0.0928224938
   5      85.3546413500      0.2937849971
   6      31.0350352400      0.6740160462
 S 2 
   1      12.2608607300      0.6383993750
   2       4.9987076000      0.3953458663
 S 1 
   1       1.1703108200      1.0000000000
 S 1 
   1       0.4647474100      1.0000000000
 S 1 
   1       0.1850453600      1.0000000000
 P 4 
   1      63.2749548000      0.0120183316
   2      14.6270493800      0.0830054304
   3       4.4501223500      0.3199174388
   4       1.5275799600      0.7071554258
 P 1 
   1       0.5293511800      1.0000000000
 P 1 
   1       0.1747842100      1.0000000000
 D 1 
   1       1.2000000000      1.0000000000
  end;

 # Basis set for element : S 
 NewGTO S 
 S 7 
   1   60700.9281040000      0.0005238013
   2    9102.6106854000      0.0040506304
   3    2071.4166009000      0.0208270003
   4     586.0247682100      0.0814968475
   5     190.5539502100      0.2374911358
   6      67.6303842600      0.4472617145
   7      25.1273069100      0.3489191913
 S 3 
   1     112.5746301000      0.1004556993
   2      34.7955542200      0.4339117282
   3       6.5115556200     -1.2084330582
 S 2 
   1       3.2399032300      0.6749812922
   2       1.5477160900      0.3470879597
 S 1 
   1       0.4054103000      1.0000000000
 S 1 
   1       0.1455065100      1.0000000000
 P 6 
   1     564.3671602700      0.0025564845
   2     133.4262437900      0.0202874255
   3      42.4682711900      0.0927670112
   4      15.6165275800      0.2650208365
   5       6.1093988500      0.4486298663
   6       2.4404160200      0.3596369916
 P 1 
   1       0.8388220100      1.0000000000
 P 1 
   1       0.3128874700      1.0000000000
 P 1 
   1       0.1077010900      1.0000000000
 D 1 
   1       0.5500000000      1.0000000000
  end;

 # Basis set for element : V 
 NewGTO V 
 S 1 
   1  4239814.9912500000      1.0000000000
 S 1 
   1  1695925.9965000001      1.0000000000
 S 1 
   1  678370.3986000001      1.0000000000
 S 1 
   1  271348.1594400000      1.0000000000
 S 1 
   1   40672.0050780000      1.0000000000
 S 1 
   1    9257.0761385000      1.0000000000
 S 1 
   1    2622.7328773000      1.0000000000
 S 1 
   1     858.5948018500      1.0000000000
 S 1 
   1     314.1941865000      1.0000000000
 S 1 
   1     124.4786212700      1.0000000000
 S 1 
   1      50.4693993090      1.0000000000
 S 1 
   1      12.5138469110      1.0000000000
 S 1 
   1       5.3447758082      1.0000000000
 S 1 
   1       1.5755631295      1.0000000000
 S 1 
   1       0.6306903307      1.0000000000
 S 1 
   1       0.0879544416      1.0000000000
 S 1 
   1       0.0342969197      1.0000000000
 P 3 
   1    1450.0319327000     -0.0222847647
   2     343.7504988400     -0.1817959329
   3     110.8252170800     -0.8607412073
 P 3 
   1      41.8224645460     -0.2522537814
   2      17.0880737100     -0.4620379520
   3       7.2613218939     -0.3990010670
 P 1 
   1       2.9458145262      1.0000000000
 P 1 
   1       1.1650209680      1.0000000000
 P 1 
   1       0.4339937839      1.0000000000
 D 3 
   1      27.3603358640      0.0575501019
   2       7.4542765527      0.3023798347
   3       2.4632270217      0.7724212088
 D 1 
   1       0.8249954244      1.0000000000
 D 1 
   1       0.2526297057      1.0000000000
 P 1 
   1       0.1112480000      1.0000000000
 P 1 
   1       0.0363780000      1.0000000000
 F 1 
   1       1.8000000000      1.0000000000
  end;

---------------------------------
AUXILIARY/J BASIS SET INFORMATION
---------------------------------
There are 5 groups of distinct atoms

 Group   1 Type V   : 19s5p5d3f3g contracted to 8s5p5d2f3g pattern {121111111/11111/11111/21/111}
 Group   2 Type S   : 14s5p5d2f1g contracted to 8s4p3d1f1g pattern {71111111/2111/311/2/1}
 Group   3 Type O   : 12s5p4d2f1g contracted to 6s4p3d1f1g pattern {711111/2111/211/2/1}
 Group   4 Type C   : 12s5p4d2f1g contracted to 6s4p3d1f1g pattern {711111/2111/211/2/1}
 Group   5 Type H   : 5s2p1d contracted to 3s1p1d pattern {311/2/1}

Atom   0V    basis set group =>   1
Atom   1S    basis set group =>   2
Atom   2S    basis set group =>   2
Atom   3S    basis set group =>   2
Atom   4S    basis set group =>   2
Atom   5O    basis set group =>   3
Atom   6C    basis set group =>   4
Atom   7C    basis set group =>   4
Atom   8C    basis set group =>   4
Atom   9C    basis set group =>   4
Atom  10S    basis set group =>   2
Atom  11S    basis set group =>   2
Atom  12S    basis set group =>   2
Atom  13S    basis set group =>   2
Atom  14C    basis set group =>   4
Atom  15C    basis set group =>   4
Atom  16C    basis set group =>   4
Atom  17C    basis set group =>   4
Atom  18S    basis set group =>   2
Atom  19S    basis set group =>   2
Atom  20S    basis set group =>   2
Atom  21S    basis set group =>   2
Atom  22C    basis set group =>   4
Atom  23C    basis set group =>   4
Atom  24C    basis set group =>   4
Atom  25H    basis set group =>   5
Atom  26H    basis set group =>   5
Atom  27H    basis set group =>   5
Atom  28H    basis set group =>   5
Atom  29H    basis set group =>   5
Atom  30H    basis set group =>   5
Atom  31C    basis set group =>   4
Atom  32C    basis set group =>   4
Atom  33C    basis set group =>   4
Atom  34H    basis set group =>   5
Atom  35H    basis set group =>   5
Atom  36H    basis set group =>   5
Atom  37H    basis set group =>   5
Atom  38H    basis set group =>   5
Atom  39H    basis set group =>   5

-------------------------------------
AUXILIARY/J BASIS SET IN INPUT FORMAT
-------------------------------------

 # Auxiliary/J basis set for element : H 
 NewAuxJGTO H 
 S 3 
   1      15.6752927000      0.1007184237
   2       3.6063578000      0.3404257499
   3       1.2080016000      0.6491996172
 S 1 
   1       0.4726794000      1.0000000000
 S 1 
   1       0.2018100000      1.0000000000
 P 2 
   1       2.0281365000      0.5596620919
   2       0.5358730000      0.5596620919
 D 1 
   1       2.2165124000      1.0000000000
  end;

 # Auxiliary/J basis set for element : C 
 NewAuxJGTO C 
 S 7 
   1    1861.0916331000      0.0134602335
   2     642.9939764000      0.0299160374
   3     235.1105725000      0.1008649584
   4      90.7028894000      0.2370970548
   5      36.7794552000      0.3924037254
   6      15.6046273000      0.3195862154
   7       6.8907294000      0.0530104441
 S 1 
   1       3.1478850000     -1.0000000000
 S 1 
   1       1.4777287000      1.0000000000
 S 1 
   1       0.7076466000      1.0000000000
 S 1 
   1       0.3430122000      1.0000000000
 S 1 
   1       0.1669453000      1.0000000000
 P 2 
   1      13.5472892000     -0.6769313712
   2       5.4669419000     -0.3779500978
 P 1 
   1       2.1751721000      1.0000000000
 P 1 
   1       0.8582194000      1.0000000000
 P 1 
   1       0.3376720000      1.0000000000
 D 2 
   1       5.9287253000     -0.3533329857
   2       1.9809209000     -0.7456525731
 D 1 
   1       0.8055417000     -1.0000000000
 D 1 
   1       0.3531244000     -1.0000000000
 F 2 
   1       1.6755626000      0.6311076882
   2       0.5997536000      0.4968166032
 G 1 
   1       1.0024600000     -1.0000000000
  end;

 # Auxiliary/J basis set for element : O 
 NewAuxJGTO O 
 S 7 
   1    2876.8216605000      0.0168151159
   2    1004.7443032000      0.0340137548
   3     369.7579954000      0.1194951309
   4     142.9442404000      0.2664627624
   5      57.8366425000      0.4202764046
   6      24.3864983000      0.2765077335
   7      10.6622662000      0.0057008815
 S 1 
   1       4.8070437000     -1.0000000000
 S 1 
   1       2.2210770000      1.0000000000
 S 1 
   1       1.0447795000      1.0000000000
 S 1 
   1       0.4968425000      1.0000000000
 S 1 
   1       0.2371384000      1.0000000000
 P 2 
   1      64.2613382000     -0.2731534179
   2      16.3006076000     -0.8168011598
 P 1 
   1       4.3550542000      1.0000000000
 P 1 
   1       1.2019554000      1.0000000000
 P 1 
   1       0.3354196000      1.0000000000
 D 2 
   1       9.2146611000     -0.4661230638
   2       2.8435251000     -0.6600908911
 D 1 
   1       0.9955759000     -1.0000000000
 D 1 
   1       0.3649441000     -1.0000000000
 F 2 
   1       2.6420115000      0.5931563945
   2       0.7345613000      0.5931563945
 G 1 
   1       1.3931000000     -1.0000000000
  end;

 # Auxiliary/J basis set for element : S 
 NewAuxJGTO S 
 S 7 
   1    7399.0303145000      0.0295137551
   2    2710.1675859000      0.0559686311
   3    1034.3279062000      0.1764696370
   4     410.4645411000      0.3577969368
   5     168.9762502000      0.4299293578
   6      71.9687889000      0.1259148089
   7      31.6172683000     -0.0646025788
 S 1 
   1      14.2796836000      1.0000000000
 S 1 
   1       6.6060948000      1.0000000000
 S 1 
   1       3.1181477000      1.0000000000
 S 1 
   1       1.4954039000     -1.0000000000
 S 1 
   1       0.7254779000      1.0000000000
 S 1 
   1       0.3544216000      1.0000000000
 S 1 
   1       0.1735525000      1.0000000000
 P 2 
   1      12.6998799000      1.4059102813
   2       4.4295784000     -1.2124994202
 P 1 
   1       1.5232889000      1.0000000000
 P 1 
   1       0.5194667000     -1.0000000000
 P 1 
   1       0.1766547000     -1.0000000000
 D 3 
   1      16.8546461000      1.0295742104
   2       5.0810461000     -0.7461553923
   3       1.5102323000      0.8357028005
 D 1 
   1       0.4451331000      1.0000000000
 D 1 
   1       0.1308362000      1.0000000000
 F 2 
   1       1.0809860000      0.5572698934
   2       0.4161474000      0.5572698934
 G 1 
   1       0.6707100000     -1.0000000000
  end;

 # Auxiliary/J basis set for element : V 
 NewAuxJGTO V 
 S 12 
   1   11942.0842430000      0.0459866720
   2    2430.7110193000      0.1744615821
   3     841.0764301000      0.2900402792
   4     494.7508273000      0.1411212903
   5     291.0298903000      0.2660697186
   6     171.1940483000      0.0446365706
   7      59.2366916000     -0.0408204801
   8      34.8451117000      0.1394665381
   9      20.4971240000      0.2164746715
  10      12.0571314000      0.0864266611
  11       7.0924300000     -0.0568501658
  12       4.1720176000     -0.0126212852
 S 1 
   1       2.4541279000      1.0000000000
 S 1 
   1       1.4436046000      1.0000000000
 S 1 
   1       0.8491792000      1.0000000000
 S 1 
   1       0.2938336000      1.0000000000
 S 1 
   1       0.1728433000      1.0000000000
 S 1 
   1       0.1016725000      1.0000000000
 S 1 
   1       0.0598074000      1.0000000000
 P 1 
   1      16.7130979000     -1.0000000000
 P 1 
   1       4.7454037000     -1.0000000000
 P 1 
   1       1.3889998000      1.0000000000
 P 1 
   1       0.4142440000     -1.0000000000
 P 1 
   1       0.1243234000      1.0000000000
 D 1 
   1       7.7143225000      1.0000000000
 D 1 
   1       3.1170731000      1.0000000000
 D 1 
   1       1.2767950000     -1.0000000000
 D 1 
   1       0.5273386000      1.0000000000
 D 1 
   1       0.2184050000      1.0000000000
 F 2 
   1       3.1309344000     -1.0825667766
   2       1.0419780000      0.1809223232
 F 1 
   1       0.3559044000      1.0000000000
 G 1 
   1       8.7130110000      1.0000000000
 G 1 
   1       2.7493872000      1.0000000000
 G 1 
   1       0.8775089000      1.0000000000
  end;



           ************************************************************
           *        Program running with 8 parallel MPI-processes     *
           *              working on a common directory               *
           ************************************************************
------------------------------------------------------------------------------
                           ORCA GTO INTEGRAL CALCULATION
                           -- RI-GTO INTEGRALS CHOSEN --
------------------------------------------------------------------------------
------------------------------------------------------------------------------
                   ___                                                        
                  /   \      - P O W E R E D   B Y -                         
                 /     \                                                     
                 |  |  |   _    _      __       _____    __    __             
                 |  |  |  | |  | |    /  \     |  _  \  |  |  /  |          
                  \  \/   | |  | |   /    \    | | | |  |  | /  /          
                 / \  \   | |__| |  /  /\  \   | |_| |  |  |/  /          
                |  |  |   |  __  | /  /__\  \  |    /   |      \           
                |  |  |   | |  | | |   __   |  |    \   |  |\   \          
                \     /   | |  | | |  |  |  |  | |\  \  |  | \   \       
                 \___/    |_|  |_| |__|  |__|  |_| \__\ |__|  \__/        
                                                                              
                      - O R C A' S   B I G   F R I E N D -                    
                                      &                                       
                       - I N T E G R A L  F E E D E R -                       
                                                                              
 v1 FN, 2020, v2 2021                                                         
------------------------------------------------------------------------------


Reading SHARK input file input_104.SHARKINP.tmp ... ok
----------------------
SHARK INTEGRAL PACKAGE
----------------------

Number of atoms                             ...     40
Number of basis functions                   ...    681
Number of shells                            ...    331
Maximum angular momentum                    ...      3
Integral batch strategy                     ... SHARK/LIBINT Hybrid
RI-J (if used) integral strategy            ... SPLIT-RIJ (Revised 2003 algorithm where possible)
Printlevel                                  ...      1
Contraction scheme used                     ... SEGMENTED contraction
Coulomb Range Separation                    ... NOT USED
Exchange Range Separation                   ... NOT USED
Finite Nucleus Model                        ... NOT USED
Auxiliary Coulomb fitting basis             ... AVAILABLE
   # of basis functions in Aux-J            ...   1568
   # of shells in Aux-J                     ...    512
   Maximum angular momentum in Aux-J        ...      4
Auxiliary J/K fitting basis                 ... NOT available
Auxiliary Correlation fitting basis         ... NOT available
Auxiliary 'external' fitting basis          ... NOT available
Integral threshold                          ...     1.000000e-10
Primitive cut-off                           ...     1.000000e-11
Primitive pair pre-selection threshold      ...     1.000000e-11

Calculating pre-screening integrals         ... done (  0.1 sec) Dimension = 331
Organizing shell pair data                  ... done (  0.1 sec)
Shell pair information
Total number of shell pairs                 ...     54946
Shell pairs after pre-screening             ...     22639
Total number of primitive shell pairs       ...    221635
Primitive shell pairs kept                  ...     55260
          la=0 lb=0:   6404 shell pairs
          la=1 lb=0:   9073 shell pairs
          la=1 lb=1:   3185 shell pairs
          la=2 lb=0:   2126 shell pairs
          la=2 lb=1:   1533 shell pairs
          la=2 lb=2:    195 shell pairs
          la=3 lb=0:     56 shell pairs
          la=3 lb=1:     54 shell pairs
          la=3 lb=2:     12 shell pairs
          la=3 lb=3:      1 shell pairs

Calculating one electron integrals          ... done (  0.0 sec)
Calculating RI/J V-Matrix + Cholesky decomp.... done (  0.1 sec)
Calculating Nuclear repulsion               ... done (  0.0 sec) ENN=   5058.544696041312 Eh

SHARK setup successfully completed in   0.7 seconds

Maximum memory used throughout the entire GTOINT-calculation: 39.7 MB


           ************************************************************
           *        Program running with 8 parallel MPI-processes     *
           *              working on a common directory               *
           ************************************************************
-------------------------------------------------------------------------------
                                 ORCA SCF
-------------------------------------------------------------------------------

------------
SCF SETTINGS
------------
Hamiltonian:
 Density Functional     Method          .... DFT(GTOs)
 Exchange Functional    Exchange        .... B88
   X-Alpha parameter    XAlpha          ....  0.666667
   Becke's b parameter  XBeta           ....  0.004200
 Correlation Functional Correlation     .... LYP
 LDA part of GGA corr.  LDAOpt          .... VWN-5
 Gradients option       PostSCFGGA      .... off
 Hybrid DFT is turned on
   Fraction HF Exchange ScalHFX         ....  0.200000
   Scaling of DF-GGA-X  ScalDFX         ....  0.720000
   Scaling of DF-GGA-C  ScalDFC         ....  0.810000
   Scaling of DF-LDA-C  ScalLDAC        ....  1.000000
   Perturbative correction              ....  0.000000
   Density functional embedding theory  .... OFF
   NL short-range parameter             ....  4.800000
 RI-approximation to the Coulomb term is turned on
   Number of AuxJ basis functions       .... 1568
   RIJ-COSX (HFX calculated with COS-X)).... on


General Settings:
 Integral files         IntName         .... input_104
 Hartree-Fock type      HFTyp           .... UHF
 Total Charge           Charge          ....   -2
 Multiplicity           Mult            ....    2
 Number of Electrons    NEL             ....  321
 Basis Dimension        Dim             ....  681
 Nuclear Repulsion      ENuc            ....   5058.5446960413 Eh

Convergence Acceleration:
 DIIS                   CNVDIIS         .... on
   Start iteration      DIISMaxIt       ....    12
   Startup error        DIISStart       ....  0.200000
   # of expansion vecs  DIISMaxEq       ....     5
   Bias factor          DIISBfac        ....   1.050
   Max. coefficient     DIISMaxC        ....  10.000
 Trust-Rad. Augm. Hess. CNVTRAH         .... auto
   Auto Start mean grad. ratio tolernc. ....  1.125000
   Auto Start start iteration           ....    20
   Auto Start num. interpolation iter.  ....    10
   Max. Number of Micro iterations      ....    16
   Max. Number of Macro iterations      .... Maxiter - #DIIS iter
   Number of Davidson start vectors     ....     2
   Converg. threshold I  (grad. norm)   ....   5.000e-05
   Converg. threshold II (energy diff.) ....   1.000e-06
   Grad. Scal. Fac. for Micro threshold ....   0.100
   Minimum threshold for Micro iter.    ....   0.010
   NR start threshold (gradient norm)   ....   0.001
   Initial trust radius                 ....   0.400
   Minimum AH scaling param. (alpha)    ....   1.000
   Maximum AH scaling param. (alpha)    .... 1000.000
   Orbital update algorithm             .... Taylor
   White noise on init. David. guess    .... on
   Maximum white noise                  ....   0.010
   Quad. conv. algorithm                .... NR
 SOSCF                  CNVSOSCF        .... off
 Level Shifting         CNVShift        .... on
   Level shift para.    LevelShift      ....    0.2500
   Turn off err/grad.   ShiftErr        ....    0.0010
 Zerner damping         CNVZerner       .... off
 Static damping         CNVDamp         .... on
   Fraction old density DampFac         ....    0.7000
   Max. Damping (<1)    DampMax         ....    0.9800
   Min. Damping (>=0)   DampMin         ....    0.0000
   Turn off err/grad.   DampErr         ....    0.1000
 Fernandez-Rico         CNVRico         .... off

SCF Procedure:
 Maximum # iterations   MaxIter         ....   125
 SCF integral mode      SCFMode         .... Direct
   Integral package                     .... SHARK and LIBINT hybrid scheme
 Reset frequency        DirectResetFreq ....    20
 Integral Threshold     Thresh          ....  1.000e-10 Eh
 Primitive CutOff       TCut            ....  1.000e-11 Eh

Convergence Tolerance:
 Convergence Check Mode ConvCheckMode   .... Total+1el-Energy
 Convergence forced     ConvForced      .... 0
 Energy Change          TolE            ....  1.000e-06 Eh
 1-El. energy change                    ....  1.000e-03 Eh
 DIIS Error             TolErr          ....  1.000e-06


Diagonalization of the overlap matrix:
Smallest eigenvalue                        ... 8.629e-05
Time for diagonalization                   ...    0.266 sec
Threshold for overlap eigenvalues          ... 1.000e-08
Number of eigenvalues below threshold      ... 0
Time for construction of square roots      ...    0.159 sec
Total time needed                          ...    0.431 sec

Time for model grid setup =    0.356 sec

------------------------------
INITIAL GUESS: MODEL POTENTIAL
------------------------------
Loading Hartree-Fock densities                     ... done
Calculating cut-offs                               ... done
Initializing the effective Hamiltonian             ... done
Setting up the integral package (SHARK)            ... done
Starting the Coulomb interaction                   ... done (   0.3 sec)
Reading the grid                                   ... done
Mapping shells                                     ... done
Starting the XC term evaluation                    ... done (   0.1 sec)
  promolecular density results
     # of electrons  =    318.983977202
     EX              =   -428.134529154
     EC              =    -12.525368466
     EX+EC           =   -440.659897619
Transforming the Hamiltonian                       ... done (   0.2 sec)
Diagonalizing the Hamiltonian                      ... done (   0.2 sec)
Back transforming the eigenvectors                 ... done (   0.1 sec)
Now organizing SCF variables                       ... done
                      ------------------
                      INITIAL GUESS DONE (   1.3 sec)
                      ------------------
-------------------
DFT GRID GENERATION
-------------------

General Integration Accuracy     IntAcc      ... 4.388
Radial Grid Type                 RadialGrid  ... OptM3 with GC (2021)
Angular Grid (max. ang.)         AngularGrid ... 4 (Lebedev-302)
Angular grid pruning method      GridPruning ... 4 (adaptive)
Weight generation scheme         WeightScheme... Becke
Basis function cutoff            BFCut       ... 1.0000e-10
Integration weight cutoff        WCut        ... 1.0000e-14
Angular grids for H and He will be reduced by one unit
Partially contracted basis set               ... off
Rotationally invariant grid construction     ... off

Total number of grid points                  ...   237257
Total number of batches                      ...     3731
Average number of points per batch           ...       63
Average number of grid points per atom       ...     5931
Time for grid setup =    1.797 sec

--------------------
COSX GRID GENERATION
--------------------

GRIDX 1
-------
General Integration Accuracy     IntAcc      ... 3.816
Radial Grid Type                 RadialGrid  ... OptM3 with GC (2021)
Angular Grid (max. ang.)         AngularGrid ... 1 (Lebedev-50)
Angular grid pruning method      GridPruning ... 4 (adaptive)
Weight generation scheme         WeightScheme... Becke
Basis function cutoff            BFCut       ... 1.0000e-10
Integration weight cutoff        WCut        ... 1.0000e-14
Angular grids for H and He will be reduced by one unit
Partially contracted basis set               ... on
Rotationally invariant grid construction     ... off

Total number of grid points                  ...    29209
Total number of batches                      ...      477
Average number of points per batch           ...       61
Average number of grid points per atom       ...      730
UseSFitting                                  ... on

GRIDX 2
-------
General Integration Accuracy     IntAcc      ... 4.020
Radial Grid Type                 RadialGrid  ... OptM3 with GC (2021)
Angular Grid (max. ang.)         AngularGrid ... 2 (Lebedev-110)
Angular grid pruning method      GridPruning ... 4 (adaptive)
Weight generation scheme         WeightScheme... Becke
Basis function cutoff            BFCut       ... 1.0000e-10
Integration weight cutoff        WCut        ... 1.0000e-14
Angular grids for H and He will be reduced by one unit
Partially contracted basis set               ... on
Rotationally invariant grid construction     ... off

Total number of grid points                  ...    64053
Total number of batches                      ...     1021
Average number of points per batch           ...       62
Average number of grid points per atom       ...     1601
UseSFitting                                  ... on

GRIDX 3
-------
General Integration Accuracy     IntAcc      ... 4.338
Radial Grid Type                 RadialGrid  ... OptM3 with GC (2021)
Angular Grid (max. ang.)         AngularGrid ... 3 (Lebedev-194)
Angular grid pruning method      GridPruning ... 4 (adaptive)
Weight generation scheme         WeightScheme... Becke
Basis function cutoff            BFCut       ... 1.0000e-10
Integration weight cutoff        WCut        ... 1.0000e-14
Angular grids for H and He will be reduced by one unit
Partially contracted basis set               ... on
Rotationally invariant grid construction     ... off

Total number of grid points                  ...   147200
Total number of batches                      ...     2320
Average number of points per batch           ...       63
Average number of grid points per atom       ...     3680
UseSFitting                                  ... on

Time for X-Grid setup             =    1.902 sec

--------------
SCF ITERATIONS
--------------
ITER       Energy         Delta-E        Max-DP      RMS-DP      [F,P]     Damp
               ***  Starting incremental Fock matrix formation  ***
  0  -6336.7960322850   0.000000000000 0.05242015  0.00066465  0.2324935 0.7000
  1  -6337.1256994122  -0.329667127204 0.12273451  0.00064344  0.1558832 0.7000
                               ***Turning on DIIS***
  2  -6337.2849800838  -0.159280671635 0.05960882  0.00034422  0.1091017 0.7000
  3  -6337.3729709624  -0.087990878525 0.04783358  0.00056726  0.0772062 0.0000
  4  -6337.5869911528  -0.214020190445 0.08170756  0.00035600  0.0129239 0.0000
  5  -6337.5930161366  -0.006024983808 0.01305072  0.00008618  0.0123206 0.0000
  6  -6337.5943312214  -0.001315084816 0.00358388  0.00004067  0.0041828 0.0000
  7  -6337.5947303509  -0.000399129477 0.00236556  0.00002459  0.0015540 0.0000
  8  -6337.5949177633  -0.000187412376 0.00305090  0.00002058  0.0018363 0.0000
  9  -6337.5950377157  -0.000119952388 0.00171710  0.00001628  0.0011721 0.0000
 10  -6337.5951157817  -0.000078066071 0.00343643  0.00003860  0.0007199 0.0000
               *** Restarting incremental Fock matrix formation ***
                                   *** Resetting DIIS ***
 11  -6337.5952328865  -0.000117104745 0.00128573  0.00001114  0.0007710 0.0000
 12  -6337.5952071312   0.000025755331 0.00038964  0.00000263  0.0024344 0.0000
 13  -6337.5952366733  -0.000029542118 0.00054728  0.00000483  0.0008036 0.0000
 14  -6337.5952414556  -0.000004782377 0.00020045  0.00000242  0.0002418 0.0000
 15  -6337.5952422157  -0.000000760077 0.00013672  0.00000145  0.0002014 0.0000
 16  -6337.5952427475  -0.000000531761 0.00010019  0.00000099  0.0000921 0.0000
 17  -6337.5952430960  -0.000000348485 0.00006366  0.00000069  0.0000686 0.0000
                 **** Energy Check signals convergence ****

               *****************************************************
               *                     SUCCESS                       *
               *           SCF CONVERGED AFTER  18 CYCLES          *
               *****************************************************

Old exchange energy                            =    -85.864341910 Eh
New exchange energy                            =    -85.864331216 Eh
Exchange energy change after final integration =      0.000010694 Eh
Total energy after final integration           =  -6337.595232378 Eh
Final COS-X integration done in                =    21.276 sec

----------------
TOTAL SCF ENERGY
----------------

Total Energy       :        -6337.59523238 Eh         -172454.73370 eV

Components:
Nuclear Repulsion  :         5058.54469604 Eh          137649.99917 eV
Electronic Energy  :       -11396.13992842 Eh         -310104.73287 eV
One Electron Energy:       -18886.93191684 Eh         -513939.54564 eV
Two Electron Energy:         7490.79198842 Eh          203834.81277 eV
Max COSX asymmetry :            0.00000206 Eh               0.00006 eV

Virial components:
Potential Energy   :       -12657.98336556 Eh         -344441.23843 eV
Kinetic Energy     :         6320.38813318 Eh          171986.50473 eV
Virial Ratio       :            2.00272248


DFT components:
N(Alpha)           :      161.000157337699 electrons
N(Beta)            :      160.000156190951 electrons
N(Total)           :      321.000313528650 electrons
E(X)               :     -341.245806334824 Eh       
E(C)               :      -14.707190903676 Eh       
E(XC)              :     -355.952997238499 Eh       
DFET-embed. en.    :        0.000000000000 Eh       

---------------
SCF CONVERGENCE
---------------

  Last Energy change         ...    2.3284e-08  Tolerance :   1.0000e-06
  Last MAX-Density change    ...    0.0000e+00  Tolerance :   1.0000e-05
  Last RMS-Density change    ...    0.0000e+00  Tolerance :   1.0000e-06
  Last DIIS Error            ...    1.3321e-05  Tolerance :   1.0000e-06

             **** THE GBW FILE WAS UPDATED (input_104.gbw) ****
             **** DENSITY input_104.scfp WAS UPDATED ****
             **** ENERGY FILE WAS UPDATED (input_104.en.tmp) ****
----------------------
UHF SPIN CONTAMINATION
----------------------

Warning: in a DFT calculation there is little theoretical justification to 
         calculate <S**2> as in Hartree-Fock theory. We will do it anyways
         but you should keep in mind that the values have only limited relevance

Expectation value of <S**2>     :     0.765621
Ideal value S*(S+1) for S=0.5   :     0.750000
Deviation                       :     0.015621

             **** THE GBW FILE WAS UPDATED (input_104.gbw) ****
             **** DENSITY input_104.scfp WAS UPDATED ****
----------------
ORBITAL ENERGIES
----------------
                 SPIN UP ORBITALS
  NO   OCC          E(Eh)            E(eV) 
   0   1.0000    -196.676289     -5351.8339 
   1   1.0000     -88.739620     -2414.7278 
   2   1.0000     -88.738767     -2414.7046 
   3   1.0000     -88.734077     -2414.5770 
   4   1.0000     -88.733824     -2414.5701 
   5   1.0000     -88.733416     -2414.5590 
   6   1.0000     -88.733273     -2414.5551 
   7   1.0000     -88.730626     -2414.4831 
   8   1.0000     -88.730555     -2414.4812 
   9   1.0000     -88.641828     -2412.0668 
  10   1.0000     -88.641615     -2412.0610 
  11   1.0000     -88.640816     -2412.0392 
  12   1.0000     -88.640327     -2412.0259 
  13   1.0000     -22.051672      -600.0565 
  14   1.0000     -18.891560      -514.0655 
  15   1.0000     -18.558116      -504.9920 
  16   1.0000     -18.552951      -504.8515 
  17   1.0000     -18.552849      -504.8487 
  18   1.0000     -10.108655      -275.0705 
  19   1.0000     -10.101248      -274.8689 
  20   1.0000     -10.080627      -274.3078 
  21   1.0000     -10.079883      -274.2875 
  22   1.0000     -10.076288      -274.1897 
  23   1.0000     -10.059401      -273.7302 
  24   1.0000     -10.058212      -273.6979 
  25   1.0000     -10.051989      -273.5285 
  26   1.0000     -10.048853      -273.4432 
  27   1.0000     -10.048272      -273.4274 
  28   1.0000     -10.021182      -272.6902 
  29   1.0000     -10.020258      -272.6651 
  30   1.0000     -10.018661      -272.6216 
  31   1.0000     -10.017867      -272.6000 
  32   1.0000      -7.792749      -212.0515 
  33   1.0000      -7.791964      -212.0301 
  34   1.0000      -7.787256      -211.9020 
  35   1.0000      -7.787055      -211.8965 
  36   1.0000      -7.786882      -211.8918 
  37   1.0000      -7.786739      -211.8879 
  38   1.0000      -7.783893      -211.8105 
  39   1.0000      -7.783856      -211.8095 
  40   1.0000      -7.696126      -209.4222 
  41   1.0000      -7.695842      -209.4145 
  42   1.0000      -7.695111      -209.3946 
  43   1.0000      -7.694686      -209.3831 
  44   1.0000      -5.757828      -156.6785 
  45   1.0000      -5.757044      -156.6571 
  46   1.0000      -5.754316      -156.5829 
  47   1.0000      -5.753541      -156.5618 
  48   1.0000      -5.752196      -156.5252 
  49   1.0000      -5.751993      -156.5197 
  50   1.0000      -5.751867      -156.5162 
  51   1.0000      -5.751721      -156.5123 
  52   1.0000      -5.748839      -156.4339 
  53   1.0000      -5.748802      -156.4328 
  54   1.0000      -5.748453      -156.4234 
  55   1.0000      -5.748314      -156.4196 
  56   1.0000      -5.747736      -156.4038 
  57   1.0000      -5.747532      -156.3983 
  58   1.0000      -5.747486      -156.3971 
  59   1.0000      -5.746690      -156.3754 
  60   1.0000      -5.744422      -156.3137 
  61   1.0000      -5.744381      -156.3126 
  62   1.0000      -5.743135      -156.2786 
  63   1.0000      -5.742928      -156.2730 
  64   1.0000      -5.741687      -156.2393 
  65   1.0000      -5.741542      -156.2353 
  66   1.0000      -5.739696      -156.1851 
  67   1.0000      -5.739661      -156.1841 
  68   1.0000      -5.661460      -154.0562 
  69   1.0000      -5.661207      -154.0493 
  70   1.0000      -5.660408      -154.0275 
  71   1.0000      -5.659979      -154.0158 
  72   1.0000      -5.654752      -153.8736 
  73   1.0000      -5.654485      -153.8663 
  74   1.0000      -5.653782      -153.8472 
  75   1.0000      -5.653447      -153.8381 
  76   1.0000      -5.653362      -153.8358 
  77   1.0000      -5.653138      -153.8297 
  78   1.0000      -5.652433      -153.8105 
  79   1.0000      -5.651996      -153.7986 
  80   1.0000      -2.445319       -66.5405 
  81   1.0000      -1.486607       -40.4526 
  82   1.0000      -1.474971       -40.1360 
  83   1.0000      -1.474145       -40.1135 
  84   1.0000      -0.711826       -19.3698 
  85   1.0000      -0.710338       -19.3293 
  86   1.0000      -0.686772       -18.6880 
  87   1.0000      -0.685149       -18.6439 
  88   1.0000      -0.651101       -17.7174 
  89   1.0000      -0.632306       -17.2059 
  90   1.0000      -0.631774       -17.1915 
  91   1.0000      -0.619509       -16.8577 
  92   1.0000      -0.609941       -16.5973 
  93   1.0000      -0.576927       -15.6990 
  94   1.0000      -0.576091       -15.6762 
  95   1.0000      -0.575206       -15.6521 
  96   1.0000      -0.573651       -15.6098 
  97   1.0000      -0.498514       -13.5652 
  98   1.0000      -0.498027       -13.5520 
  99   1.0000      -0.495824       -13.4921 
 100   1.0000      -0.488283       -13.2869 
 101   1.0000      -0.479723       -13.0539 
 102   1.0000      -0.471113       -12.8196 
 103   1.0000      -0.450947       -12.2709 
 104   1.0000      -0.428216       -11.6524 
 105   1.0000      -0.414863       -11.2890 
 106   1.0000      -0.400457       -10.8970 
 107   1.0000      -0.358146        -9.7457 
 108   1.0000      -0.338704        -9.2166 
 109   1.0000      -0.327685        -8.9168 
 110   1.0000      -0.322841        -8.7849 
 111   1.0000      -0.320957        -8.7337 
 112   1.0000      -0.316090        -8.6012 
 113   1.0000      -0.304891        -8.2965 
 114   1.0000      -0.297049        -8.0831 
 115   1.0000      -0.295780        -8.0486 
 116   1.0000      -0.268426        -7.3042 
 117   1.0000      -0.258234        -7.0269 
 118   1.0000      -0.257056        -6.9949 
 119   1.0000      -0.252309        -6.8657 
 120   1.0000      -0.250450        -6.8151 
 121   1.0000      -0.236801        -6.4437 
 122   1.0000      -0.232516        -6.3271 
 123   1.0000      -0.232189        -6.3182 
 124   1.0000      -0.221806        -6.0356 
 125   1.0000      -0.219268        -5.9666 
 126   1.0000      -0.218208        -5.9377 
 127   1.0000      -0.213386        -5.8065 
 128   1.0000      -0.198168        -5.3924 
 129   1.0000      -0.193656        -5.2696 
 130   1.0000      -0.187857        -5.1118 
 131   1.0000      -0.185804        -5.0560 
 132   1.0000      -0.180337        -4.9072 
 133   1.0000      -0.176967        -4.8155 
 134   1.0000      -0.160976        -4.3804 
 135   1.0000      -0.152125        -4.1395 
 136   1.0000      -0.147400        -4.0110 
 137   1.0000      -0.139170        -3.7870 
 138   1.0000      -0.135143        -3.6774 
 139   1.0000      -0.134583        -3.6622 
 140   1.0000      -0.126604        -3.4451 
 141   1.0000      -0.122574        -3.3354 
 142   1.0000      -0.114871        -3.1258 
 143   1.0000      -0.111260        -3.0275 
 144   1.0000      -0.102070        -2.7775 
 145   1.0000      -0.099457        -2.7064 
 146   1.0000      -0.099148        -2.6980 
 147   1.0000      -0.096254        -2.6192 
 148   1.0000      -0.075997        -2.0680 
 149   1.0000      -0.070362        -1.9147 
 150   1.0000      -0.067735        -1.8432 
 151   1.0000      -0.053884        -1.4662 
 152   1.0000      -0.047060        -1.2806 
 153   1.0000      -0.039742        -1.0814 
 154   1.0000      -0.038442        -1.0461 
 155   1.0000      -0.033016        -0.8984 
 156   1.0000      -0.026356        -0.7172 
 157   1.0000      -0.020522        -0.5584 
 158   1.0000      -0.016983        -0.4621 
 159   1.0000       0.018697         0.5088 
 160   1.0000       0.039714         1.0807 
 161   0.0000       0.121949         3.3184 
 162   0.0000       0.137547         3.7428 
 163   0.0000       0.146360         3.9827 
 164   0.0000       0.151623         4.1259 
 165   0.0000       0.160066         4.3556 
 166   0.0000       0.162287         4.4161 
 167   0.0000       0.169584         4.6146 
 168   0.0000       0.171474         4.6661 
 169   0.0000       0.171818         4.6754 
 170   0.0000       0.173156         4.7118 
 171   0.0000       0.175189         4.7671 
 172   0.0000       0.176354         4.7988 
 173   0.0000       0.183379         4.9900 
 174   0.0000       0.190170         5.1748 
 175   0.0000       0.191480         5.2104 
 176   0.0000       0.194344         5.2884 
 177   0.0000       0.197269         5.3680 
 178   0.0000       0.200173         5.4470 
 179   0.0000       0.201755         5.4900 
 180   0.0000       0.206111         5.6086 
 181   0.0000       0.213240         5.8025 
 182   0.0000       0.216198         5.8831 
 183   0.0000       0.216412         5.8889 
 184   0.0000       0.218137         5.9358 
 185   0.0000       0.223058         6.0697 
 186   0.0000       0.225442         6.1346 
 187   0.0000       0.228314         6.2127 
 188   0.0000       0.230919         6.2836 
 189   0.0000       0.236711         6.4412 
 190   0.0000       0.239797         6.5252 
 191   0.0000       0.245064         6.6685 
 192   0.0000       0.247587         6.7372 
 193   0.0000       0.252837         6.8800 
 194   0.0000       0.258475         7.0335 
 195   0.0000       0.264974         7.2103 
 196   0.0000       0.268208         7.2983 
 197   0.0000       0.272558         7.4167 
 198   0.0000       0.272704         7.4207 
 199   0.0000       0.274856         7.4792 
 200   0.0000       0.285932         7.7806 
 201   0.0000       0.287930         7.8350 
 202   0.0000       0.299343         8.1455 
 203   0.0000       0.307086         8.3562 
 204   0.0000       0.308988         8.4080 
 205   0.0000       0.321567         8.7503 
 206   0.0000       0.328464         8.9380 
 207   0.0000       0.332973         9.0607 
 208   0.0000       0.333360         9.0712 
 209   0.0000       0.341077         9.2812 
 210   0.0000       0.344722         9.3804 
 211   0.0000       0.349249         9.5036 
 212   0.0000       0.349668         9.5149 
 213   0.0000       0.355939         9.6856 
 214   0.0000       0.358938         9.7672 
 215   0.0000       0.366277         9.9669 
 216   0.0000       0.371686        10.1141 
 217   0.0000       0.374650        10.1947 
 218   0.0000       0.382288        10.4026 
 219   0.0000       0.383128        10.4254 
 220   0.0000       0.388296        10.5661 
 221   0.0000       0.389501        10.5989 
 222   0.0000       0.391441        10.6517 
 223   0.0000       0.393107        10.6970 
 224   0.0000       0.397778        10.8241 
 225   0.0000       0.401192        10.9170 
 226   0.0000       0.401254        10.9187 
 227   0.0000       0.404790        11.0149 
 228   0.0000       0.411522        11.1981 
 229   0.0000       0.414475        11.2784 
 230   0.0000       0.421619        11.4728 
 231   0.0000       0.423172        11.5151 
 232   0.0000       0.426950        11.6179 
 233   0.0000       0.431649        11.7458 
 234   0.0000       0.434889        11.8339 
 235   0.0000       0.438255        11.9255 
 236   0.0000       0.441456        12.0126 
 237   0.0000       0.450165        12.2496 
 238   0.0000       0.452008        12.2998 
 239   0.0000       0.459743        12.5102 
 240   0.0000       0.462188        12.5768 
 241   0.0000       0.465624        12.6703 
 242   0.0000       0.469790        12.7836 
 243   0.0000       0.471205        12.8221 
 244   0.0000       0.472058        12.8454 
 245   0.0000       0.477171        12.9845 
 246   0.0000       0.477916        13.0048 
 247   0.0000       0.478838        13.0299 
 248   0.0000       0.481266        13.0959 
 249   0.0000       0.485262        13.2047 
 250   0.0000       0.489966        13.3326 
 251   0.0000       0.491360        13.3706 
 252   0.0000       0.492411        13.3992 
 253   0.0000       0.498933        13.5767 
 254   0.0000       0.502917        13.6851 
 255   0.0000       0.507087        13.7986 
 256   0.0000       0.509162        13.8550 
 257   0.0000       0.510312        13.8863 
 258   0.0000       0.513619        13.9763 
 259   0.0000       0.516262        14.0482 
 260   0.0000       0.517383        14.0787 
 261   0.0000       0.521178        14.1820 
 262   0.0000       0.522273        14.2118 
 263   0.0000       0.525120        14.2893 
 264   0.0000       0.525542        14.3007 
 265   0.0000       0.527372        14.3505 
 266   0.0000       0.528222        14.3737 
 267   0.0000       0.530132        14.4256 
 268   0.0000       0.531897        14.4737 
 269   0.0000       0.539820        14.6892 
 270   0.0000       0.543088        14.7782 
 271   0.0000       0.546474        14.8703 
 272   0.0000       0.546810        14.8794 
 273   0.0000       0.550927        14.9915 
 274   0.0000       0.551501        15.0071 
 275   0.0000       0.558228        15.1901 
 276   0.0000       0.566532        15.4161 
 277   0.0000       0.571781        15.5590 
 278   0.0000       0.573397        15.6029 
 279   0.0000       0.575062        15.6482 
 280   0.0000       0.586911        15.9707 
 281   0.0000       0.588194        16.0056 
 282   0.0000       0.592065        16.1109 
 283   0.0000       0.594855        16.1868 
 284   0.0000       0.595691        16.2096 
 285   0.0000       0.602874        16.4050 
 286   0.0000       0.608914        16.5694 
 287   0.0000       0.610281        16.6066 
 288   0.0000       0.612974        16.6799 
 289   0.0000       0.613474        16.6935 
 290   0.0000       0.616849        16.7853 
 291   0.0000       0.620351        16.8806 
 292   0.0000       0.628692        17.1076 
 293   0.0000       0.631490        17.1837 
 294   0.0000       0.636615        17.3232 
 295   0.0000       0.637865        17.3572 
 296   0.0000       0.639106        17.3909 
 297   0.0000       0.643639        17.5143 
 298   0.0000       0.648846        17.6560 
 299   0.0000       0.657232        17.8842 
 300   0.0000       0.658178        17.9099 
 301   0.0000       0.674377        18.3507 
 302   0.0000       0.679757        18.4971 
 303   0.0000       0.684045        18.6138 
 304   0.0000       0.705884        19.2081 
 305   0.0000       0.711579        19.3631 
 306   0.0000       0.715147        19.4601 
 307   0.0000       0.721153        19.6236 
 308   0.0000       0.732242        19.9253 
 309   0.0000       0.733665        19.9640 
 310   0.0000       0.735646        20.0179 
 311   0.0000       0.751408        20.4468 
 312   0.0000       0.766056        20.8454 
 313   0.0000       0.767712        20.8905 
 314   0.0000       0.769491        20.9389 
 315   0.0000       0.783521        21.3207 
 316   0.0000       0.783808        21.3285 
 317   0.0000       0.788874        21.4663 
 318   0.0000       0.801648        21.8139 
 319   0.0000       0.810715        22.0607 
 320   0.0000       0.816655        22.2223 
 321   0.0000       0.819468        22.2989 
 322   0.0000       0.825243        22.4560 
 323   0.0000       0.828950        22.5569 
 324   0.0000       0.843351        22.9488 
 325   0.0000       0.847770        23.0690 
 326   0.0000       0.855146        23.2697 
 327   0.0000       0.861118        23.4322 
 328   0.0000       0.864948        23.5364 
 329   0.0000       0.867681        23.6108 
 330   0.0000       0.869473        23.6596 
 331   0.0000       0.874876        23.8066 
 332   0.0000       0.875030        23.8108 
 333   0.0000       0.877003        23.8645 
 334   0.0000       0.884731        24.0747 
 335   0.0000       0.891496        24.2588 
 336   0.0000       0.898297        24.4439 
 337   0.0000       0.901627        24.5345 
 338   0.0000       0.913091        24.8465 
 339   0.0000       0.918292        24.9880 
 340   0.0000       0.923295        25.1241 
 341   0.0000       0.933270        25.3956 
 342   0.0000       0.936583        25.4857 
 343   0.0000       0.938040        25.5254 
 344   0.0000       0.940632        25.5959 
 345   0.0000       0.942398        25.6439 
 346   0.0000       0.947583        25.7850 
 347   0.0000       0.951809        25.9000 
 348   0.0000       0.960022        26.1235 
 349   0.0000       0.967733        26.3334 
 350   0.0000       0.974437        26.5158 
 351   0.0000       0.978320        26.6215 
 352   0.0000       0.988319        26.8935 
 353   0.0000       1.005804        27.3693 
 354   0.0000       1.007456        27.4143 
 355   0.0000       1.009782        27.4776 
 356   0.0000       1.011555        27.5258 
 357   0.0000       1.014562        27.6076 
 358   0.0000       1.016373        27.6569 
 359   0.0000       1.018378        27.7115 
 360   0.0000       1.031987        28.0818 
 361   0.0000       1.034250        28.1434 
 362   0.0000       1.040838        28.3226 
 363   0.0000       1.049167        28.5493 
 364   0.0000       1.059271        28.8242 
 365   0.0000       1.062890        28.9227 
 366   0.0000       1.064926        28.9781 
 367   0.0000       1.070659        29.1341 
 368   0.0000       1.072904        29.1952 
 369   0.0000       1.078012        29.3342 
 370   0.0000       1.085332        29.5334 
 371   0.0000       1.093044        29.7432 
 372   0.0000       1.096527        29.8380 
 373   0.0000       1.099571        29.9208 
 374   0.0000       1.105570        30.0841 
 375   0.0000       1.107621        30.1399 
 376   0.0000       1.111280        30.2395 
 377   0.0000       1.117112        30.3982 
 378   0.0000       1.133174        30.8352 
 379   0.0000       1.140523        31.0352 
 380   0.0000       1.142111        31.0784 
 381   0.0000       1.157076        31.4856 
 382   0.0000       1.157183        31.4885 
 383   0.0000       1.161442        31.6044 
 384   0.0000       1.164449        31.6863 
 385   0.0000       1.198792        32.6208 
 386   0.0000       1.202985        32.7349 
 387   0.0000       1.232843        33.5474 
 388   0.0000       1.237089        33.6629 
 389   0.0000       1.237586        33.6764 
 390   0.0000       1.242198        33.8019 
 391   0.0000       1.248496        33.9733 
 392   0.0000       1.274842        34.6902 
 393   0.0000       1.283417        34.9235 
 394   0.0000       1.296913        35.2908 
 395   0.0000       1.303486        35.4696 
 396   0.0000       1.314736        35.7758 
 397   0.0000       1.324412        36.0391 
 398   0.0000       1.330826        36.2136 
 399   0.0000       1.333976        36.2993 
 400   0.0000       1.335478        36.3402 
 401   0.0000       1.354946        36.8700 
 402   0.0000       1.358377        36.9633 
 403   0.0000       1.394266        37.9399 
 404   0.0000       1.410934        38.3935 
 405   0.0000       1.425582        38.7921 
 406   0.0000       1.427864        38.8542 
 407   0.0000       1.429608        38.9016 
 408   0.0000       1.436521        39.0897 
 409   0.0000       1.447283        39.3826 
 410   0.0000       1.452620        39.5278 
 411   0.0000       1.469080        39.9757 
 412   0.0000       1.476774        40.1851 
 413   0.0000       1.485633        40.4261 
 414   0.0000       1.491813        40.5943 
 415   0.0000       1.497481        40.7485 
 416   0.0000       1.502827        40.8940 
 417   0.0000       1.504277        40.9335 
 418   0.0000       1.507618        41.0244 
 419   0.0000       1.514012        41.1984 
 420   0.0000       1.525157        41.5016 
 421   0.0000       1.526108        41.5275 
 422   0.0000       1.528849        41.6021 
[...]
Total number of batches                      ...      301
Average number of points per batch           ...       59
Average number of grid points per atom       ...      444

Memory available               ... 822.0 MB
Memory needed per perturbation ...  41.3 MB
Perturbations treated per batch... 3
Number of batches              ... 1
     CP-SCF ITERATION   0:   3.6556e-02 (   4.7 sec   0/  3 done)
     CP-SCF ITERATION   1:   1.3078e-03 (   4.9 sec   2/  3 done)
     CP-SCF ITERATION   2:   1.4442e-04 (   3.0 sec   3/  3 done)
                    *** THE CP-SCF HAS CONVERGED ***

Forming final perturbed densities           ... done
Transforming perturbed density to AO basis  ... done

 Raw HFC matrix (all values in MHz): 
 -----------------------------------
                 0.1681               0.0812              -0.0179
                 0.0811              -0.0055              -0.0076
                -0.0175              -0.0075              -0.0364

 A(FC)           0.0419               0.0419               0.0419
 A(SD)          -0.0797              -0.0810               0.1607
 A(ORB+DIA)      0.0007               0.0008              -0.0009    A(PC) =   0.0002
 A(ORB)          0.0007               0.0008              -0.0009    A(PC) =   0.0002
 A(DIA)         -0.0000              -0.0000               0.0000    A(PC) =  -0.0000
             ----------           ----------           ----------
 A(Tot)         -0.0371              -0.0383               0.2017    A(iso)=    0.0421
 Orientation: 
  X           0.3490473           -0.1377713           -0.9269224
  Y          -0.7622619            0.5336118           -0.3663541
  Z           0.5450897            0.8344325            0.0812380

Notes:  (1) The A matrix conforms to the "SAI" spin Hamiltonian convention.
        (2) Tensor is right-handed.

 Raw EFG matrix (all values in a.u.**-3):
 -----------------------------------
             0.0569      -0.0299      -0.0103
            -0.0299      -0.0236       0.0080
            -0.0103       0.0080      -0.0333

 V(El)       0.3870       0.5976      -0.9846
 V(Nuc)     -0.4168      -0.6360       1.0528
         ----------   ----------   ----------
 V(Tot)     -0.0298      -0.0385       0.0683 
 Orientation: 
  X      -0.3166273   -0.1204964   -0.9408654
  Y      -0.6960880   -0.6442978    0.3167679
  Z      -0.6443669    0.7552225    0.1201262

Note: Tensor is right-handed


 Quadrupole tensor eigenvalues (in MHz;Q= 0.0029 I=  1.0)
  e**2qQ            =     0.045830 MHz 
  e**2qQ/(4I*(2I-1))=     0.011458 MHz 
  eta               =     0.127109
  NOTE: the diagonal representation of the SH term I*Q*I = e**2qQ/(4I(2I-1))*[-(1-eta),-(1+eta),2]

 RHO(0)=      0.349869082 a.u.**-3

 -----------------------------------------------------------
 Nucleus  39H : A:ISTP=    1 I=  0.5 P=533.5514 MHz/au**3
                Q:ISTP=    2 I=  1.0 Q=  0.0029 barn     
 -----------------------------------------------------------
 Solving for nuclear perturbation:
Forming RHS of the CP-SCF equations         ... 
Calc. nucleus orbit integrals (SHARK)       ... done

------------------------------------------------------------------------------
                           ORCA CP-SCF CALCULATION
------------------------------------------------------------------------------

Input orbitals are from        ... input_104.gbw
Input Perturbation             ... input_104.pin.tmp
Wavefunction output            ... input_104.pout.tmp
Perturbation mode              ... Imaginary perturbation
Solver                         ... POPLE
Max. number of iterations      ... 64
Convergence tolerance          ... 1.000e-03
Integral handling              ... Direct
DFT GridXC                     ... 1
COSX GridX                     ... 1
COSX IntAccX                   ... 3.067
COSX Algorithm                 ... Auto
Number of perturbations        ... 3
Number of operators            ... 2
Orbital ranges used for CP-SCF:
 Operator 0:  Orbitals   0...160  to 161...680
 Operator 1:  Orbitals   0...159  to 160...680
Variables per perturbation     ... 167080
DFT calculation                         ... on
XC functional terms                     ... off
Hybrid DFT                              ... on
   Exchange mixing (SCF)                ...  0.200
   Exchange mixing (CP-SCF)             ...  0.200
   GGA exch. scaling(SCF)               ...  0.720
   GGA exch. scaling (CP-SCF)           ...  0.720
   GGA corr. scaling (SCF)              ...  0.810
   GGA corr. scaling (CP-SCF)           ...  0.810

CP-SCF GRID
-----------

General Integration Accuracy     IntAcc      ... 3.467
Radial Grid Type                 RadialGrid  ... OptM3 with GC (2021)
Angular Grid (max. ang.)         AngularGrid ... 1 (Lebedev-50)
Angular grid pruning method      GridPruning ... 4 (adaptive)
Weight generation scheme         WeightScheme... Becke
Basis function cutoff            BFCut       ... 1.0000e-10
Integration weight cutoff        WCut        ... 1.0000e-14
Angular grids for H and He will be reduced by one unit
Partially contracted basis set               ... off
Rotationally invariant grid construction     ... off

Total number of grid points                  ...    39361
Total number of batches                      ...      638
Average number of points per batch           ...       61
Average number of grid points per atom       ...      984

CP-SCF GRIDX
------------

General Integration Accuracy     IntAcc      ... 3.067
Radial Grid Type                 RadialGrid  ... OptM3 with GC (2021)
Angular Grid (max. ang.)         AngularGrid ... 1 (Lebedev-50)
Angular grid pruning method      GridPruning ... 4 (adaptive)
Weight generation scheme         WeightScheme... Becke
Basis function cutoff            BFCut       ... 1.0000e-10
Integration weight cutoff        WCut        ... 1.0000e-14
Angular grids for H and He will be reduced by one unit
Partially contracted basis set               ... on
Rotationally invariant grid construction     ... off

Total number of grid points                  ...    17777
Total number of batches                      ...      301
Average number of points per batch           ...       59
Average number of grid points per atom       ...      444

Memory available               ... 819.9 MB
Memory needed per perturbation ...  41.3 MB
Perturbations treated per batch... 3
Number of batches              ... 1
     CP-SCF ITERATION   0:   3.8872e-02 (   4.8 sec   0/  3 done)
     CP-SCF ITERATION   1:   1.5517e-03 (   4.9 sec   0/  3 done)
     CP-SCF ITERATION   2:   1.7236e-04 (   4.9 sec   3/  3 done)
                    *** THE CP-SCF HAS CONVERGED ***

Forming final perturbed densities           ... done
Transforming perturbed density to AO basis  ... done

 Raw HFC matrix (all values in MHz): 
 -----------------------------------
                 0.1921               0.1567               0.0234
                 0.1566              -0.0769               0.0094
                 0.0235               0.0095              -0.1461

 A(FC)          -0.0106              -0.0106              -0.0106
 A(SD)          -0.1381              -0.1400               0.2781
 A(ORB+DIA)      0.0018               0.0010              -0.0018    A(PC) =   0.0003
 A(ORB)          0.0019               0.0011              -0.0019    A(PC) =   0.0004
 A(DIA)         -0.0000              -0.0001               0.0000    A(PC) =  -0.0000
             ----------           ----------           ----------
 A(Tot)         -0.1469              -0.1496               0.2657    A(iso)=   -0.0103
 Orientation: 
  X           0.1722629           -0.3842268           -0.9070255
  Y          -0.4992553            0.7597074           -0.4166400
  Z           0.8491582            0.5246089           -0.0609578

Notes:  (1) The A matrix conforms to the "SAI" spin Hamiltonian convention.
        (2) Tensor is right-handed.

 Raw EFG matrix (all values in a.u.**-3):
 -----------------------------------
            -0.0215       0.0115      -0.0197
             0.0115      -0.0074      -0.0303
            -0.0197      -0.0303       0.0290

 V(El)       0.4296       0.2739      -0.7035
 V(Nuc)     -0.4542      -0.3024       0.7566
         ----------   ----------   ----------
 V(Tot)     -0.0245      -0.0285       0.0531 
 Orientation: 
  X       0.0659400    0.9539901    0.2924976
  Y       0.8578540   -0.2039209    0.4717019
  Z       0.5096453    0.2198162   -0.8318308

Note: Tensor is right-handed


 Quadrupole tensor eigenvalues (in MHz;Q= 0.0029 I=  1.0)
  e**2qQ            =     0.035634 MHz 
  e**2qQ/(4I*(2I-1))=     0.008909 MHz 
  eta               =     0.075224
  NOTE: the diagonal representation of the SH term I*Q*I = e**2qQ/(4I(2I-1))*[-(1-eta),-(1+eta),2]

 RHO(0)=      0.339460369 a.u.**-3

 -----------------------------------------------------------
 Nucleus   0V : A:ISTP=   51 I=  3.5 P=140.5173 MHz/au**3
                Q:ISTP=   51 I=  3.5 Q= -0.0430 barn     
 -----------------------------------------------------------
 Solving for nuclear perturbation:
Forming RHS of the CP-SCF equations         ... 
Calc. nucleus orbit integrals (SHARK)       ... done

------------------------------------------------------------------------------
                           ORCA CP-SCF CALCULATION
------------------------------------------------------------------------------

Input orbitals are from        ... input_104.gbw
Input Perturbation             ... input_104.pin.tmp
Wavefunction output            ... input_104.pout.tmp
Perturbation mode              ... Imaginary perturbation
Solver                         ... POPLE
Max. number of iterations      ... 64
Convergence tolerance          ... 1.000e-03
Integral handling              ... Direct
DFT GridXC                     ... 1
COSX GridX                     ... 1
COSX IntAccX                   ... 3.067
COSX Algorithm                 ... Auto
Number of perturbations        ... 3
Number of operators            ... 2
Orbital ranges used for CP-SCF:
 Operator 0:  Orbitals   0...160  to 161...680
 Operator 1:  Orbitals   0...159  to 160...680
Variables per perturbation     ... 167080
DFT calculation                         ... on
XC functional terms                     ... off
Hybrid DFT                              ... on
   Exchange mixing (SCF)                ...  0.200
   Exchange mixing (CP-SCF)             ...  0.200
   GGA exch. scaling(SCF)               ...  0.720
   GGA exch. scaling (CP-SCF)           ...  0.720
   GGA corr. scaling (SCF)              ...  0.810
   GGA corr. scaling (CP-SCF)           ...  0.810

CP-SCF GRID
-----------

General Integration Accuracy     IntAcc      ... 3.467
Radial Grid Type                 RadialGrid  ... OptM3 with GC (2021)
Angular Grid (max. ang.)         AngularGrid ... 1 (Lebedev-50)
Angular grid pruning method      GridPruning ... 4 (adaptive)
Weight generation scheme         WeightScheme... Becke
Basis function cutoff            BFCut       ... 1.0000e-10
Integration weight cutoff        WCut        ... 1.0000e-14
Angular grids for H and He will be reduced by one unit
Partially contracted basis set               ... off
Rotationally invariant grid construction     ... off

Total number of grid points                  ...    39361
Total number of batches                      ...      638
Average number of points per batch           ...       61
Average number of grid points per atom       ...      984

CP-SCF GRIDX
------------

General Integration Accuracy     IntAcc      ... 3.067
Radial Grid Type                 RadialGrid  ... OptM3 with GC (2021)
Angular Grid (max. ang.)         AngularGrid ... 1 (Lebedev-50)
Angular grid pruning method      GridPruning ... 4 (adaptive)
Weight generation scheme         WeightScheme... Becke
Basis function cutoff            BFCut       ... 1.0000e-10
Integration weight cutoff        WCut        ... 1.0000e-14
Angular grids for H and He will be reduced by one unit
Partially contracted basis set               ... on
Rotationally invariant grid construction     ... off

Total number of grid points                  ...    17777
Total number of batches                      ...      301
Average number of points per batch           ...       59
Average number of grid points per atom       ...      444

Memory available               ... 817.8 MB
Memory needed per perturbation ...  41.3 MB
Perturbations treated per batch... 3
Number of batches              ... 1
     CP-SCF ITERATION   0:   1.3378e+01 (   5.1 sec   0/  3 done)
     CP-SCF ITERATION   1:   1.8548e+00 (   4.9 sec   0/  3 done)
     CP-SCF ITERATION   2:   3.3315e-01 (   4.9 sec   0/  3 done)
     CP-SCF ITERATION   3:   3.9969e-02 (   4.9 sec   0/  3 done)
     CP-SCF ITERATION   4:   6.5985e-03 (   4.9 sec   0/  3 done)
     CP-SCF ITERATION   5:   1.8743e-03 (   5.0 sec   0/  3 done)
     CP-SCF ITERATION   6:   3.5630e-04 (   4.9 sec   3/  3 done)
                    *** THE CP-SCF HAS CONVERGED ***

Forming final perturbed densities           ... done
Transforming perturbed density to AO basis  ... done

 Raw HFC matrix (all values in MHz): 
 -----------------------------------
               -95.5280              -1.3236             -48.6184
                -1.1629             -86.1507               7.1620
               -49.4776               6.4838            -380.1727

 A(FC)        -175.3865            -175.3865            -175.3865
 A(SD)          98.0849              93.8009            -191.8859
 A(ORB+DIA)     -6.9211              -7.5162             -21.2547    A(PC) = -11.8973
 A(ORB)         -6.9206              -7.5166             -21.2545    A(PC) = -11.8973
 A(DIA)         -0.0004               0.0005              -0.0002    A(PC) =  -0.0000
             ----------           ----------           ----------
 A(Tot)        -84.2226             -89.1017            -388.5271    A(iso)= -187.2838
 Orientation: 
  X          -0.5776275           -0.7997341            0.1636210
  Y           0.8082444           -0.5884109           -0.0226629
  Z           0.1144007            0.1191550            0.9862629

Notes:  (1) The A matrix conforms to the "SAI" spin Hamiltonian convention.
        (2) Tensor is right-handed.

 Raw EFG matrix (all values in a.u.**-3):
 -----------------------------------
            -0.1341      -0.0715       0.0405
            -0.0715      -0.0830      -0.0297
             0.0405      -0.0297       0.2171

 V(El)       0.1878      -0.4750       0.2873
 V(Nuc)     -0.2291       0.2900      -0.0609
         ----------   ----------   ----------
 V(Tot)     -0.0413      -0.1851       0.2264 
 Orientation: 
  X      -0.5498755    0.8242384   -0.1351588
  Y       0.8156692    0.5647398    0.1255097
  Z       0.1797795   -0.0412302   -0.9828425

Note: Tensor is right-handed


 Quadrupole tensor eigenvalues (in MHz;Q=-0.0430 I=  3.5)
  e**2qQ            =    -2.287519 MHz 
  e**2qQ/(4I*(2I-1))=    -0.027232 MHz 
  eta               =     0.634964
  NOTE: the diagonal representation of the SH term I*Q*I = e**2qQ/(4I(2I-1))*[-(1-eta),-(1+eta),2]

 RHO(0)=   8115.202557625 a.u.**-3


--------------------------------------------------------------------------------
----------------------------------------------------------------------------
                           ORCA EULER ANGLE PROGRAM
----------------------------------------------------------------------------

Only g-tensor available        -->  using g-tensor as reference tensor

Reference tensor               ...  g

g-tensor ordering              ...  |g_min> --> |gx>
                                    |g_mid> --> |gy>
                                    |g_max> --> |gz>

A- and EFG-tensor ordering     ...  the axes |Ax>, |Qx>, |Ay>, etc. are assigned
                                    such that the Euler rotation is minimal. You
                                    can find the respective eigenvalues as Ax,
                                    EFGx, Ay, etc. in the tables below.
                                    The relation of |Ax>, |Ay>,  etc. to Amin, Amid, etc.
                                    (as printed in the ORCA EPR/NMR CALCULATION Output)
                                    is obtained in the detailed printout.

Euler rotation around          ...  z - y - z
   First rotation              -->  by alpha around z
   Second rotation             -->  by beta around y'
   Third rotation              -->  by gamma around z''
   Positive / Negative angle   -->  clockwise / counterclockwise rotation

Plot EFG-tensors                    (-)
Plot HFC-tensors                    (-)
Detailed Printout                   (-)

-------------------------------------------------------------------------
          Euler rotation of hyperfine tensor to g-tensor
-------------------------------------------------------------------------

-------------------------------------------------------------------
 Atom  |   Alpha    Beta    Gamma   |   Ax       Ay       Az 
       |          [degrees]         |           [MHz]         
-------------------------------------------------------------------
 25H       24.3     12.5    -50.3      -0.13     0.25    -0.13
 26H      160.5     26.7    177.0      -0.08     0.16    -0.08
 27H     -125.3      4.7    100.4      -0.07     0.13    -0.07
 28H     -105.2      4.0     89.8      -0.07     0.14    -0.07
 29H      -32.0     32.0      7.5      -0.08     0.16    -0.08
 30H     -126.4     15.9    100.7      -0.13     0.25    -0.13
 34H      169.5     18.3   -176.1      -0.15     0.26    -0.15
 35H       11.7     43.3     -7.8      -0.05     0.19    -0.05
 36H      -36.7      8.6     44.7      -0.07     0.14    -0.07
 37H      -32.2     11.1     28.6      -0.07     0.14    -0.07
 38H     -150.3     42.1    159.8      -0.04     0.20    -0.04
 39H      -33.8     28.5     25.1      -0.15     0.27    -0.15
  0V      -79.3      5.0     85.6    -388.53   -89.10   -84.22
-------------------------------------------------------------------


-------------------------------------------------------------------------------
    Euler rotation of Electric Field Gradient (EFG) tensor to g-tensor
-------------------------------------------------------------------------------

-------------------------------------------------------------------
 Atom  |   Alpha    Beta    Gamma  |   EFGx     EFGy     EFGz
       |          [degrees]        |         [a.u.**-3]       
-------------------------------------------------------------------
 25H     -174.2     38.5   -149.7     -0.17     0.34    -0.17
 26H      -39.0     40.9     69.0     -0.16    -0.17     0.34
 27H      -52.7      3.8     70.1      0.28    -0.14    -0.14
 28H      -33.7      3.8     68.2     -0.17     0.34    -0.16
 29H      141.0     33.4   -110.6     -0.16    -0.17     0.33
 30H       -0.8     44.1     35.5     -0.17     0.33    -0.16
 34H       95.8     34.7   -127.0      0.08    -0.04    -0.04
 35H     -119.1     42.5     84.2     -0.05    -0.04     0.10
 36H      -94.0      7.6     57.1      0.05    -0.03    -0.02
 37H      -17.0      6.8     57.3      0.29    -0.15    -0.14
 38H       50.1     30.6    -87.0     -0.04    -0.03     0.07
 39H       83.4     41.6   -117.1      0.05    -0.02    -0.03
  0V      -55.7      7.7     57.1      0.23    -0.19    -0.04
-------------------------------------------------------------------


Maximum memory used throughout the entire EPRNMR-calculation: 307.9 MB

Timings for individual modules:

Sum of individual times         ...     3723.419 sec (=  62.057 min)
GTO integral calculation        ...        1.474 sec (=   0.025 min)   0.0 %
Spin-Orbit-Coupling Matrices    ...       10.445 sec (=   0.174 min)   0.3 %
SCF iterations                  ...      215.412 sec (=   3.590 min)   5.8 %
EPR/NMR calculation             ...     3496.088 sec (=  58.268 min)  93.9 %
                             ****ORCA TERMINATED NORMALLY****
TOTAL RUN TIME: 0 days 1 hours 2 minutes 4 seconds 660 msec
