
                                 *****************
                                 * O   R   C   A *
                                 *****************

                                            #,                                       
                                            ###                                      
                                            ####                                     
                                            #####                                    
                                            ######                                   
                                           ########,                                 
                                     ,,################,,,,,                         
                               ,,#################################,,                 
                          ,,##########################################,,             
                       ,#########################################, ''#####,          
                    ,#############################################,,   '####,        
                  ,##################################################,,,,####,       
                ,###########''''           ''''###############################       
              ,#####''   ,,,,##########,,,,          '''####'''          '####       
            ,##' ,,,,###########################,,,                        '##       
           ' ,,###''''                  '''############,,,                           
         ,,##''                                '''############,,,,        ,,,,,,###''
      ,#''                                            '''#######################'''  
     '                                                          ''''####''''         
             ,#######,   #######,   ,#######,      ##                                
            ,#'     '#,  ##    ##  ,#'     '#,    #''#        ######   ,####,        
            ##       ##  ##   ,#'  ##            #'  '#       #        #'  '#        
            ##       ##  #######   ##           ,######,      #####,   #    #        
            '#,     ,#'  ##    ##  '#,     ,#' ,#      #,         ##   #,  ,#        
             '#######'   ##     ##  '#######'  #'      '#     #####' # '####'        



                  #######################################################
                  #                        -***-                        #
                  #          Department of theory and spectroscopy      #
                  #    Directorship and core code : Frank Neese         #
                  #        Max Planck Institute fuer Kohlenforschung    #
                  #                Kaiser Wilhelm Platz 1               #
                  #                 D-45470 Muelheim/Ruhr               #
                  #                      Germany                        #
                  #                                                     #
                  #                  All rights reserved                #
                  #                        -***-                        #
                  #######################################################


                         Program Version 5.0.4 -  RELEASE  -


 With contributions from (in alphabetic order):
   Daniel Aravena         : Magnetic Suceptibility
   Michael Atanasov       : Ab Initio Ligand Field Theory (pilot matlab implementation)
   Alexander A. Auer      : GIAO ZORA, VPT2 properties, NMR spectrum
   Ute Becker             : Parallelization
   Giovanni Bistoni       : ED, misc. LED, open-shell LED, HFLD
   Martin Brehm           : Molecular dynamics
   Dmytro Bykov           : SCF Hessian
   Vijay G. Chilkuri      : MRCI spin determinant printing, contributions to CSF-ICE
   Dipayan Datta          : RHF DLPNO-CCSD density
   Achintya Kumar Dutta   : EOM-CC, STEOM-CC
   Dmitry Ganyushin       : Spin-Orbit,Spin-Spin,Magnetic field MRCI
   Miquel Garcia          : C-PCM and meta-GGA Hessian, CC/C-PCM, Gaussian charge scheme
   Yang Guo               : DLPNO-NEVPT2, F12-NEVPT2, CIM, IAO-localization
   Andreas Hansen         : Spin unrestricted coupled pair/coupled cluster methods
   Benjamin Helmich-Paris : MC-RPA, TRAH-SCF, COSX integrals
   Lee Huntington         : MR-EOM, pCC
   Robert Izsak           : Overlap fitted RIJCOSX, COSX-SCS-MP3, EOM
   Marcus Kettner         : VPT2
   Christian Kollmar      : KDIIS, OOCD, Brueckner-CCSD(T), CCSD density, CASPT2, CASPT2-K
   Simone Kossmann        : Meta GGA functionals, TD-DFT gradient, OOMP2, MP2 Hessian
   Martin Krupicka        : Initial AUTO-CI
   Lucas Lang             : DCDCAS
   Marvin Lechner         : AUTO-CI (C++ implementation), FIC-MRCC
   Dagmar Lenk            : GEPOL surface, SMD
   Dimitrios Liakos       : Extrapolation schemes; Compound Job, initial MDCI parallelization
   Dimitrios Manganas     : Further ROCIS development; embedding schemes
   Dimitrios Pantazis     : SARC Basis sets
   Anastasios Papadopoulos: AUTO-CI, single reference methods and gradients
   Taras Petrenko         : DFT Hessian,TD-DFT gradient, ASA, ECA, R-Raman, ABS, FL, XAS/XES, NRVS
   Peter Pinski           : DLPNO-MP2, DLPNO-MP2 Gradient
   Christoph Reimann      : Effective Core Potentials
   Marius Retegan         : Local ZFS, SOC
   Christoph Riplinger    : Optimizer, TS searches, QM/MM, DLPNO-CCSD(T), (RO)-DLPNO pert. Triples
   Tobias Risthaus        : Range-separated hybrids, TD-DFT gradient, RPA, STAB
   Michael Roemelt        : Original ROCIS implementation
   Masaaki Saitow         : Open-shell DLPNO-CCSD energy and density
   Barbara Sandhoefer     : DKH picture change effects
   Avijit Sen             : IP-ROCIS
   Kantharuban Sivalingam : CASSCF convergence, NEVPT2, FIC-MRCI
   Bernardo de Souza      : ESD, SOC TD-DFT
   Georgi Stoychev        : AutoAux, RI-MP2 NMR, DLPNO-MP2 response
   Willem Van den Heuvel  : Paramagnetic NMR
   Boris Wezisla          : Elementary symmetry handling
   Frank Wennmohs         : Technical directorship


 We gratefully acknowledge several colleagues who have allowed us to
 interface, adapt or use parts of their codes:
   Stefan Grimme, W. Hujo, H. Kruse, P. Pracht,  : VdW corrections, initial TS optimization,
                  C. Bannwarth, S. Ehlert          DFT functionals, gCP, sTDA/sTD-DF
   Ed Valeev, F. Pavosevic, A. Kumar             : LibInt (2-el integral package), F12 methods
   Garnet Chan, S. Sharma, J. Yang, R. Olivares  : DMRG
   Ulf Ekstrom                                   : XCFun DFT Library
   Mihaly Kallay                                 : mrcc  (arbitrary order and MRCC methods)
   Jiri Pittner, Ondrej Demel                    : Mk-CCSD
   Frank Weinhold                                : gennbo (NPA and NBO analysis)
   Christopher J. Cramer and Donald G. Truhlar   : smd solvation model
   Lars Goerigk                                  : TD-DFT with DH, B97 family of functionals
   V. Asgeirsson, H. Jonsson                     : NEB implementation
   FAccTs GmbH                                   : IRC, NEB, NEB-TS, DLPNO-Multilevel, CI-OPT
                                                   MM, QMMM, 2- and 3-layer-ONIOM, Crystal-QMMM,
                                                   LR-CPCM, SF, NACMEs, symmetry and pop. for TD-DFT,
                                                   nearIR, NL-DFT gradient (VV10), updates on ESD,
                                                   ML-optimized integration grids
   S Lehtola, MJT Oliveira, MAL Marques          : LibXC Library
   Liviu Ungur et al                             : ANISO software


 Your calculation uses the libint2 library for the computation of 2-el integrals
 For citations please refer to: http://libint.valeyev.net

 Your ORCA version has been built with support for libXC version: 5.1.0
 For citations please refer to: https://tddft.org/programs/libxc/

 This ORCA versions uses:
   CBLAS   interface :  Fast vector & matrix operations
   LAPACKE interface :  Fast linear algebra routines
   SCALAPACK package :  Parallel linear algebra routines
   Shared memory     :  Shared parallel matrices
   BLAS/LAPACK       :  OpenBLAS 0.3.15  USE64BITINT DYNAMIC_ARCH NO_AFFINITY Prescott SINGLE_THREADED
        Core in use  :  Prescott
   Copyright (c) 2011-2014, The OpenBLAS Project


================================================================================

----- Orbital basis set information -----
Your calculation utilizes the basis: TZVP 

The basis set includes element-specific modifications.

Your calculation utilizes the basis: CP(PPP) 

----- AuxJ basis set information -----
Your calculation utilizes the auxiliary basis: def2/J
   F. Weigend, Phys. Chem. Chem. Phys. 8, 1057 (2006).

================================================================================
                                        WARNINGS
                       Please study these warnings very carefully!
================================================================================


WARNING: your system is open-shell and RHF/RKS was chosen
  ===> : WILL SWITCH to UHF/UKS


INFO   : the flag for use of the SHARK integral package has been found!

================================================================================
                                       INPUT FILE
================================================================================
NAME = input_43.inp
|  1> ! nofrozencore ReducedPop printbasis
|  2> ! B3LYP TZVP
|  3> 
|  4> %basis
|  5> newgto V "CP(PPP)" end
|  6> end
|  7> 
|  8> %pal
|  9> nprocs 8
| 10> end
| 11> 
| 12> % sym SymThresh 1e-2 end
| 13> * xyz -2 2 
| 14> V -0.4527880634485759 0.9475040253427883 0.359783001554688
| 15> S 1.9238255905529456 1.0987977989639401 1.2394003510095557
| 16> S 0.5492609819105093 1.4433479056349172 -1.7861859963007773
| 17> S -0.6129404738956606 -0.6810949944449752 2.299583009168958
| 18> S -2.081602678171927 -0.5293956420838125 -0.6166561848219223
| 19> O -1.1777133235286517 2.2750684427967593 0.8498975138688349
| 20> C -0.9403488954606677 0.9509327465333869 -2.8122539644038858
| 21> C -1.9792679784510776 0.167361148719333 -2.351804555517854
| 22> C 1.8652274184476907 0.22846475885687095 2.662827400200665
| 23> C 0.8446434235078311 -0.49195410025716296 3.0878246991231766
| 24> S -1.0765998463544744 1.4157286134096851 -4.6979283022841685
| 25> S -3.298894309420322 -0.2815099910969309 -3.707146773580029
| 26> S 1.0018191492124955 -1.3282079372725477 4.541003403050625
| 27> S 3.259116431986583 0.26690469667144806 3.6053221025684743
| 28> C -2.5291799986642367 0.556622872808581 -4.986257595617287
| 29> C 2.7198159505729906 -0.8831703021830887 4.895787489158058
| 30> C -3.075343758274908 0.5494023487017192 -6.208185228281579
| 31> C 3.4739319449423363 -1.3156540993996673 5.980425715008256
| 32> S -2.405033647545693 1.419440531938669 -7.479369726241625
| 33> S -4.511145372714492 -0.2664585880176695 -6.524553639685189
| 34> S 5.231331858110137 -0.7745289219003796 6.237535795732781
| 35> S 2.799203002834736 -2.509788406392952 7.23291638740028
| 36> C 3.973386563254079 -3.8924801504567847 6.872954985529648
| 37> C 6.008160608214677 -2.442055092570665 6.0467398359047255
| 38> C 5.43802533378254 -3.4665269920594732 7.035987791434574
| 39> H 3.765205525152521 -4.274311550889914 5.871105528794639
| 40> H 3.74456089946116 -4.6814670108030425 7.597601529596261
| 41> H 6.060114995941444 -4.372984420298186 6.975765916307037
| 42> H 5.56008002355346 -3.0623328443474143 8.04774327372822
| 43> H 7.075865540088508 -2.3030531082976564 6.248147493751843
| 44> H 5.892519984399163 -2.7643283404388885 5.009669011055706
| 45> C -5.614335775262099 1.144330661238688 -7.022845953748462
| 46> C -3.784178671106934 2.6120315608430653 -7.847050783659622
| 47> C -5.135480038628523 1.9903935010188623 -8.203596948426943
| 48> H -3.906512720374551 3.244183134605669 -6.962819269597693
| 49> H -3.3928513310401383 3.234762587380885 -8.658466224871704
| 50> H -5.082393389407337 1.404657174077872 -9.130271798765584
| 51> H -5.86106811447636 2.8063442696418224 -8.361054472391446
| 52> H -6.582081004280958 0.6721898577832285 -7.222532641849265
| 53> H -5.725693375782506 1.7885790041362242 -6.145944313245882
| 54> * 
| 55> 
| 56> % eprnmr
| 57> gtensor true
| 58> Nuclei = all H {aiso,adip,aorb,fgrad,rho}
| 59> Nuclei = all V {aiso,adip,aorb,fgrad,rho}
| 60> end
| 61> 
| 62>                          ****END OF INPUT****
================================================================================

------------------------------------------------------------------------------
                            SYMMETRY HANDLING SETUP
------------------------------------------------------------------------------

------------------
SYMMETRY DETECTION
------------------
The point group will now be determined using a tolerance of 1.0000e-02.
Splitting atom subsets according to nuclear charge, mass and basis set.
Splitting atom subsets according to distance from the molecule's center.
Identifying relative distance patterns of the atoms.
Splitting atom subsets according to atoms' relative distance patterns.
Bring atoms of each subset into input order.
The molecule is neither linear nor planar.
There is at least one atom subset not centered around the molecule's center.
The molecule does not have a center of inversion.
Analyzing the first atom subset for its symmetry.
The subset is an off-center atom pair.
Testing point group C2v.
Test failed.
Testing point group C2.
Test failed.
Testing point group Cs.
Test failed.
Testing point group Cs.
Test failed.
No testing is needed for point group C1.
This point group has been found:    C1
Largest non-degenerate subgroup:    C1


Mass-centered symmetry-perfected Cartesians (point group C1):

Atom          Symmetry-perfected Cartesians (x, y, z; au)
  0      -0.855050509262    1.786230134283    0.674085781491
  1       3.636098422939    2.072133932194    2.336321674606
  2       1.038547759224    2.723239273216   -3.381207916342
  3      -1.157694704694   -1.291375995089    4.339776550460
  4      -3.933064054017   -1.004705764433   -1.171116867190
  5      -2.224960718375    4.294963308409    1.600267984025
  6      -1.776406955391    1.792709478323   -5.320195370846
  7      -3.739679497548    0.311973752135   -4.450072089525
  8       3.525363925712    0.427442841089    5.026208969193
  9       1.596739678612   -0.933951504349    5.829337471813
 10      -2.033883938067    2.671046374897   -8.883603447203
 11      -6.233411862191   -0.536269771539   -7.011297699404
 12       1.893758755094   -2.514242234749    8.575447245882
 13       6.159432422382    0.500083796163    6.807265839340
 14      -4.778862613502    1.047571805082   -9.428466847989
 15       5.140302208618   -1.673242985142    9.245892005299
 16      -5.810962543439    1.033926991976  -11.737575429195
 17       6.565374911186   -2.490518919239   11.295561206538
 18      -4.544260009362    2.678060884349  -14.139765996026
 19      -8.524234377372   -0.507826741788  -12.335425084172
 20       9.886379454850   -1.467940529596   11.781428845378
 21       5.290321995972   -4.747105726576   13.662425562650
 22       7.509207356118   -7.360014450491   12.982197094332
 23      11.354373045504   -4.619108313309   11.420876733844
 24      10.276973517539   -6.555079635241   13.290284448337
 25       7.115802207830   -8.081571226641   11.088975993685
 26       7.076789519136   -8.850983539808   14.351580606510
 27      11.452552609763   -8.268035926671   13.176481597075
 28      10.507623454567   -5.791263391132   15.202225224365
 29      13.372042958583   -4.356432630962   11.801482048450
 30      11.135843936537   -5.228116492070    9.461096893399
 31     -10.608962111757    2.158178571987  -13.277061092390
 32      -7.150466402853    4.931731318749  -14.834582499177
 33      -9.704055911862    3.757005631259  -15.508357104687
 34      -7.381644252823    6.126324668288  -13.163627098617
 35      -6.410964901411    6.108522414001  -16.367935463902
 36      -9.603736683467    2.650124386652  -17.259518787019
 37     -11.075218661254    5.298929122719  -15.805908702705
 38     -12.437735562012    1.265961756807  -13.654414245490
 39     -10.819397479671    3.375631502296  -11.619957145453


------------------
SYMMETRY REDUCTION
------------------
ORCA supports only abelian point groups.
It is now checked, if the determined point group is supported:
Point Group ( C1    ) is          ... supported

The point group is C1 - hence turning off symmetry
If this is a round-off problem, please increase the symmetry
        detection tolerance (%method SymThresh)

Storing the symmetry object:
Symmetry file                     ... input_43.sym.tmp
Writing symmetry information      ... done

                       ****************************
                       * Single Point Calculation *
                       ****************************

---------------------------------
CARTESIAN COORDINATES (ANGSTROEM)
---------------------------------
  V     -0.452473    0.945232    0.356711
  S      1.924140    1.096526    1.236328
  S      0.549576    1.441076   -1.789258
  S     -0.612626   -0.683367    2.296511
  S     -2.081288   -0.531667   -0.619728
  O     -1.177399    2.272797    0.846825
  C     -0.940034    0.948661   -2.815326
  C     -1.978953    0.165089   -2.354877
  C      1.865542    0.226193    2.659755
  C      0.844958   -0.494226    3.084753
  S     -1.076285    1.413457   -4.701000
  S     -3.298579   -0.283782   -3.710219
  S      1.002134   -1.330480    4.537931
  S      3.259431    0.264633    3.602250
  C     -2.528865    0.554351   -4.989330
  C      2.720131   -0.885442    4.892715
  C     -3.075029    0.547131   -6.211257
  C      3.474247   -1.317926    5.977354
  S     -2.404719    1.417169   -7.482442
  S     -4.510831   -0.268730   -6.527626
  S      5.231647   -0.776801    6.234464
  S      2.799518   -2.512060    7.229844
  C      3.973701   -3.894752    6.869883
  C      6.008475   -2.444327    6.043668
  C      5.438340   -3.468799    7.032916
  H      3.765520   -4.276583    5.868033
  H      3.744876   -4.683739    7.594529
  H      6.060430   -4.375256    6.972694
  H      5.560395   -3.064605    8.044671
  H      7.076180   -2.305325    6.245075
  H      5.892835   -2.766600    5.006597
  C     -5.614021    1.142059   -7.025918
  C     -3.783864    2.609760   -7.850123
  C     -5.135165    1.988122   -8.206669
  H     -3.906198    3.241911   -6.965891
  H     -3.392537    3.232491   -8.661538
  H     -5.082079    1.402385   -9.133344
  H     -5.860753    2.804073   -8.364127
  H     -6.581766    0.669918   -7.225605
  H     -5.725379    1.786307   -6.149016

----------------------------
CARTESIAN COORDINATES (A.U.)
----------------------------
  NO LB      ZA    FRAG     MASS         X           Y           Z
   0 V    23.0000    0    50.940   -0.855051    1.786230    0.674086
   1 S    16.0000    0    32.060    3.636098    2.072134    2.336322
   2 S    16.0000    0    32.060    1.038548    2.723239   -3.381208
   3 S    16.0000    0    32.060   -1.157695   -1.291376    4.339777
   4 S    16.0000    0    32.060   -3.933064   -1.004706   -1.171117
   5 O     8.0000    0    15.999   -2.224961    4.294963    1.600268
   6 C     6.0000    0    12.011   -1.776407    1.792709   -5.320195
   7 C     6.0000    0    12.011   -3.739679    0.311974   -4.450072
   8 C     6.0000    0    12.011    3.525364    0.427443    5.026209
   9 C     6.0000    0    12.011    1.596740   -0.933952    5.829337
  10 S    16.0000    0    32.060   -2.033884    2.671046   -8.883603
  11 S    16.0000    0    32.060   -6.233412   -0.536270   -7.011298
  12 S    16.0000    0    32.060    1.893759   -2.514242    8.575447
  13 S    16.0000    0    32.060    6.159432    0.500084    6.807266
  14 C     6.0000    0    12.011   -4.778863    1.047572   -9.428467
  15 C     6.0000    0    12.011    5.140302   -1.673243    9.245892
  16 C     6.0000    0    12.011   -5.810963    1.033927  -11.737575
  17 C     6.0000    0    12.011    6.565375   -2.490519   11.295561
  18 S    16.0000    0    32.060   -4.544260    2.678061  -14.139766
  19 S    16.0000    0    32.060   -8.524234   -0.507827  -12.335425
  20 S    16.0000    0    32.060    9.886379   -1.467941   11.781429
  21 S    16.0000    0    32.060    5.290322   -4.747106   13.662426
  22 C     6.0000    0    12.011    7.509207   -7.360014   12.982197
  23 C     6.0000    0    12.011   11.354373   -4.619108   11.420877
  24 C     6.0000    0    12.011   10.276974   -6.555080   13.290284
  25 H     1.0000    0     1.008    7.115802   -8.081571   11.088976
  26 H     1.0000    0     1.008    7.076790   -8.850984   14.351581
  27 H     1.0000    0     1.008   11.452553   -8.268036   13.176482
  28 H     1.0000    0     1.008   10.507623   -5.791263   15.202225
  29 H     1.0000    0     1.008   13.372043   -4.356433   11.801482
  30 H     1.0000    0     1.008   11.135844   -5.228116    9.461097
  31 C     6.0000    0    12.011  -10.608962    2.158179  -13.277061
  32 C     6.0000    0    12.011   -7.150466    4.931731  -14.834582
  33 C     6.0000    0    12.011   -9.704056    3.757006  -15.508357
  34 H     1.0000    0     1.008   -7.381644    6.126325  -13.163627
  35 H     1.0000    0     1.008   -6.410965    6.108522  -16.367935
  36 H     1.0000    0     1.008   -9.603737    2.650124  -17.259519
  37 H     1.0000    0     1.008  -11.075219    5.298929  -15.805909
  38 H     1.0000    0     1.008  -12.437736    1.265962  -13.654414
  39 H     1.0000    0     1.008  -10.819397    3.375632  -11.619957

--------------------------------
INTERNAL COORDINATES (ANGSTROEM)
--------------------------------
 V      0   0   0     0.000000000000     0.00000000     0.00000000
 S      1   0   0     2.538682522054     0.00000000     0.00000000
 S      1   2   0     2.419740974296    84.68649535     0.00000000
 S      1   2   3     2.537874628772    80.35673117   150.10360937
 S      1   2   3     2.405764569004   144.19762148    87.15728649
 O      1   2   3     1.590017657252   105.67950011   253.88715611
 C      3   1   2     1.874626829756    95.88486964   165.44873851
 C      7   3   1     1.380344510637   124.37446264   342.20393382
 C      2   1   3     1.669448385199   103.38521530   201.86602042
 C      9   2   1     1.319552093472   125.90088428     7.79650386
 S      7   3   1     1.946886547292   121.53614423   166.76154471
 S      8   7   3     1.944184014338   114.16615213   184.76666831
 S     10   9   2     1.683969427936   118.48097523   178.53286416
 S      9   2   1     1.683062825588   115.88000324   186.49168196
 C     12   8   7     1.712031341067    95.89201549     0.18167356
 C     13  10   9     1.809818569328    97.79639703   357.45925413
 C     15  12   8     1.338452138759   119.73481818   179.77637291
 C     16  13  10     1.390026348237   126.26001688   182.25040950
 S     17  15  12     1.679938127637   121.68150540   176.80370089
 S     17  15  12     1.681441142540   121.52255052     0.06726135
 S     18  16  13     1.856711206983   122.06468821   180.41149691
 S     18  16  13     1.857403772174   121.94643019     2.24944226
 C     22  18  16     1.849355483269    96.82180626   115.47179648
 C     21  18  16     1.849461958286    96.92122628   244.36773406
 C     23  22  18     1.534008643093   112.20437349    57.15608821
 H     23  22  18     1.092170727012   108.59705764   292.65147684
 H     23  22  18     1.095433276853   106.08825049   176.34636240
 H     25  23  22     1.101039186958   107.76044308   170.50140339
 H     25  23  22     1.096320852803   107.86353361    55.38985540
 H     24  21  18     1.095390532102   106.02346829   184.04215088
 H     24  21  18     1.092130347496   108.63543881    67.74720481
 C     20  17  15     1.858938030259   100.89148802   117.30523978
 C     19  17  15     1.859974117621   100.70734774   242.81593068
 C     32  20  17     1.529476399556   116.16443419    57.47992762
 H     33  19  17     1.093822015815   107.07879131    64.01139163
 H     33  19  17     1.095137451069   104.24744622   178.39967900
 H     34  32  20     1.097557066978   111.82252713    63.53545837
 H     34  32  20     1.103198343219   108.26449908   182.17431403
 H     32  20  17     1.095135854577   104.24715680   181.19827698
 H     32  20  17     1.093806623511   107.00910701   295.54770701

---------------------------
INTERNAL COORDINATES (A.U.)
---------------------------
 V      0   0   0     0.000000000000     0.00000000     0.00000000
 S      1   0   0     4.797414707656     0.00000000     0.00000000
 S      1   2   0     4.572647756446    84.68649535     0.00000000
 S      1   2   3     4.795888010607    80.35673117   150.10360937
 S      1   2   3     4.546236178108   144.19762148    87.15728649
 O      1   2   3     3.004697920305   105.67950011   253.88715611
 C      3   1   2     3.542531311540    95.88486964   165.44873851
 C      7   3   1     2.608473095566   124.37446264   342.20393382
 C      2   1   3     3.154800242744   103.38521530   201.86602042
 C      9   2   1     2.493592076104   125.90088428     7.79650386
 S      7   3   1     3.679082388197   121.53614423   166.76154471
 S      8   7   3     3.673975341047   114.16615213   184.76666831
 S     10   9   2     3.182241036694   118.48097523   178.53286416
 S      9   2   1     3.180527806544   115.88000324   186.49168196
 C     12   8   7     3.235270367306    95.89201549     0.18167356
 C     13  10   9     3.420061448116    97.79639703   357.45925413
 C     15  12   8     2.529307985616   119.73481818   179.77637291
 C     16  13  10     2.626769117103   126.26001688   182.25040950
 S     17  15  12     3.174622983167   121.68150540   176.80370089
 S     17  15  12     3.177463269708   121.52255052     0.06726135
 S     18  16  13     3.508675690980   122.06468821   180.41149691
 S     18  16  13     3.509984449521   121.94643019     2.24944226
 C     22  18  16     3.494775387644    96.82180626   115.47179648
 C     21  18  16     3.494976596266    96.92122628   244.36773406
 C     23  22  18     2.898856222515   112.20437349    57.15608821
 H     23  22  18     2.063903565538   108.59705764   292.65147684
 H     23  22  18     2.070068891236   106.08825049   176.34636240
 H     25  23  22     2.080662526067   107.76044308   170.50140339
 H     25  23  22     2.071746166705   107.86353361    55.38985540
 H     24  21  18     2.069988115363   106.02346829   184.04215088
 H     24  21  18     2.063827259311   108.63543881    67.74720481
 C     20  17  15     3.512883777121   100.89148802   117.30523978
 C     19  17  15     3.514841698486   100.70734774   242.81593068
 C     32  20  17     2.890291523456   116.16443419    57.47992762
 H     33  19  17     2.067024049144   107.07879131    64.01139163
 H     33  19  17     2.069509861521   104.24744622   178.39967900
 H     34  32  20     2.074082272939   111.82252713    63.53545837
 H     34  32  20     2.084742740080   108.26449908   182.17431403
 H     32  20  17     2.069506844589   104.24715680   181.19827698
 H     32  20  17     2.066994961904   107.00910701   295.54770701

---------------------
BASIS SET INFORMATION
---------------------
There are 5 groups of distinct atoms

 Group   1 Type V   : 17s11p5d1f contracted to 17s7p3d1f pattern {11111111111111111/3311111/311/1}
 Group   2 Type S   : 14s9p1d contracted to 5s4p1d pattern {73211/6111/1}
 Group   3 Type O   : 11s6p1d contracted to 5s3p1d pattern {62111/411/1}
 Group   4 Type C   : 11s6p1d contracted to 5s3p1d pattern {62111/411/1}
 Group   5 Type H   : 5s1p contracted to 3s1p pattern {311/1}

Atom   0V    basis set group =>   1
Atom   1S    basis set group =>   2
Atom   2S    basis set group =>   2
Atom   3S    basis set group =>   2
Atom   4S    basis set group =>   2
Atom   5O    basis set group =>   3
Atom   6C    basis set group =>   4
Atom   7C    basis set group =>   4
Atom   8C    basis set group =>   4
Atom   9C    basis set group =>   4
Atom  10S    basis set group =>   2
Atom  11S    basis set group =>   2
Atom  12S    basis set group =>   2
Atom  13S    basis set group =>   2
Atom  14C    basis set group =>   4
Atom  15C    basis set group =>   4
Atom  16C    basis set group =>   4
Atom  17C    basis set group =>   4
Atom  18S    basis set group =>   2
Atom  19S    basis set group =>   2
Atom  20S    basis set group =>   2
Atom  21S    basis set group =>   2
Atom  22C    basis set group =>   4
Atom  23C    basis set group =>   4
Atom  24C    basis set group =>   4
Atom  25H    basis set group =>   5
Atom  26H    basis set group =>   5
Atom  27H    basis set group =>   5
Atom  28H    basis set group =>   5
Atom  29H    basis set group =>   5
Atom  30H    basis set group =>   5
Atom  31C    basis set group =>   4
Atom  32C    basis set group =>   4
Atom  33C    basis set group =>   4
Atom  34H    basis set group =>   5
Atom  35H    basis set group =>   5
Atom  36H    basis set group =>   5
Atom  37H    basis set group =>   5
Atom  38H    basis set group =>   5
Atom  39H    basis set group =>   5

-------------------------
BASIS SET IN INPUT FORMAT
-------------------------

 # Basis set for element : H 
 NewGTO H 
 S 3 
   1      34.0613410000      0.0254393168
   2       5.1235746000      0.1900859340
   3       1.1646626000      0.8524411390
 S 1 
   1       0.3272304100      1.0000000000
 S 1 
   1       0.1030724100      1.0000000000
 P 1 
   1       0.8000000000      1.0000000000
  end;

 # Basis set for element : C 
 NewGTO C 
 S 6 
   1   13575.3496820000      0.0006064601
   2    2035.2333680000      0.0046978985
   3     463.2256235900      0.0243324735
   4     131.2001959800      0.0973999560
   5      42.8530158900      0.3019558443
   6      15.5841857700      0.6623361013
 S 2 
   1       6.2067138500      0.6559530795
   2       2.5764896500      0.3758563390
 S 1 
   1       0.5769633900      1.0000000000
 S 1 
   1       0.2297283100      1.0000000000
 S 1 
   1       0.0951644400      1.0000000000
 P 4 
   1      34.6972322400      0.0113272290
   2       7.9582622800      0.0761696612
   3       2.3780826900      0.3019225154
   4       0.8143320800      0.7278502776
 P 1 
   1       0.2888754700      1.0000000000
 P 1 
   1       0.1005682400      1.0000000000
 D 1 
   1       0.8000000000      1.0000000000
  end;

 # Basis set for element : O 
 NewGTO O 
 S 6 
   1   27032.3826310000      0.0005722654
   2    4052.3871392000      0.0044353333
   3     922.3272271000      0.0230201034
   4     261.2407098900      0.0928224938
   5      85.3546413500      0.2937849971
   6      31.0350352400      0.6740160462
 S 2 
   1      12.2608607300      0.6383993750
   2       4.9987076000      0.3953458663
 S 1 
   1       1.1703108200      1.0000000000
 S 1 
   1       0.4647474100      1.0000000000
 S 1 
   1       0.1850453600      1.0000000000
 P 4 
   1      63.2749548000      0.0120183316
   2      14.6270493800      0.0830054304
   3       4.4501223500      0.3199174388
   4       1.5275799600      0.7071554258
 P 1 
   1       0.5293511800      1.0000000000
 P 1 
   1       0.1747842100      1.0000000000
 D 1 
   1       1.2000000000      1.0000000000
  end;

 # Basis set for element : S 
 NewGTO S 
 S 7 
   1   60700.9281040000      0.0005238013
   2    9102.6106854000      0.0040506304
   3    2071.4166009000      0.0208270003
   4     586.0247682100      0.0814968475
   5     190.5539502100      0.2374911358
   6      67.6303842600      0.4472617145
   7      25.1273069100      0.3489191913
 S 3 
   1     112.5746301000      0.1004556993
   2      34.7955542200      0.4339117282
   3       6.5115556200     -1.2084330582
 S 2 
   1       3.2399032300      0.6749812922
   2       1.5477160900      0.3470879597
 S 1 
   1       0.4054103000      1.0000000000
 S 1 
   1       0.1455065100      1.0000000000
 P 6 
   1     564.3671602700      0.0025564845
   2     133.4262437900      0.0202874255
   3      42.4682711900      0.0927670112
   4      15.6165275800      0.2650208365
   5       6.1093988500      0.4486298663
   6       2.4404160200      0.3596369916
 P 1 
   1       0.8388220100      1.0000000000
 P 1 
   1       0.3128874700      1.0000000000
 P 1 
   1       0.1077010900      1.0000000000
 D 1 
   1       0.5500000000      1.0000000000
  end;

 # Basis set for element : V 
 NewGTO V 
 S 1 
   1  4239814.9912500000      1.0000000000
 S 1 
   1  1695925.9965000001      1.0000000000
 S 1 
   1  678370.3986000001      1.0000000000
 S 1 
   1  271348.1594400000      1.0000000000
 S 1 
   1   40672.0050780000      1.0000000000
 S 1 
   1    9257.0761385000      1.0000000000
 S 1 
   1    2622.7328773000      1.0000000000
 S 1 
   1     858.5948018500      1.0000000000
 S 1 
   1     314.1941865000      1.0000000000
 S 1 
   1     124.4786212700      1.0000000000
 S 1 
   1      50.4693993090      1.0000000000
 S 1 
   1      12.5138469110      1.0000000000
 S 1 
   1       5.3447758082      1.0000000000
 S 1 
   1       1.5755631295      1.0000000000
 S 1 
   1       0.6306903307      1.0000000000
 S 1 
   1       0.0879544416      1.0000000000
 S 1 
   1       0.0342969197      1.0000000000
 P 3 
   1    1450.0319327000     -0.0222847647
   2     343.7504988400     -0.1817959329
   3     110.8252170800     -0.8607412073
 P 3 
   1      41.8224645460     -0.2522537814
   2      17.0880737100     -0.4620379520
   3       7.2613218939     -0.3990010670
 P 1 
   1       2.9458145262      1.0000000000
 P 1 
   1       1.1650209680      1.0000000000
 P 1 
   1       0.4339937839      1.0000000000
 D 3 
   1      27.3603358640      0.0575501019
   2       7.4542765527      0.3023798347
   3       2.4632270217      0.7724212088
 D 1 
   1       0.8249954244      1.0000000000
 D 1 
   1       0.2526297057      1.0000000000
 P 1 
   1       0.1112480000      1.0000000000
 P 1 
   1       0.0363780000      1.0000000000
 F 1 
   1       1.8000000000      1.0000000000
  end;

---------------------------------
AUXILIARY/J BASIS SET INFORMATION
---------------------------------
There are 5 groups of distinct atoms

 Group   1 Type V   : 19s5p5d3f3g contracted to 8s5p5d2f3g pattern {121111111/11111/11111/21/111}
 Group   2 Type S   : 14s5p5d2f1g contracted to 8s4p3d1f1g pattern {71111111/2111/311/2/1}
 Group   3 Type O   : 12s5p4d2f1g contracted to 6s4p3d1f1g pattern {711111/2111/211/2/1}
 Group   4 Type C   : 12s5p4d2f1g contracted to 6s4p3d1f1g pattern {711111/2111/211/2/1}
 Group   5 Type H   : 5s2p1d contracted to 3s1p1d pattern {311/2/1}

Atom   0V    basis set group =>   1
Atom   1S    basis set group =>   2
Atom   2S    basis set group =>   2
Atom   3S    basis set group =>   2
Atom   4S    basis set group =>   2
Atom   5O    basis set group =>   3
Atom   6C    basis set group =>   4
Atom   7C    basis set group =>   4
Atom   8C    basis set group =>   4
Atom   9C    basis set group =>   4
Atom  10S    basis set group =>   2
Atom  11S    basis set group =>   2
Atom  12S    basis set group =>   2
Atom  13S    basis set group =>   2
Atom  14C    basis set group =>   4
Atom  15C    basis set group =>   4
Atom  16C    basis set group =>   4
Atom  17C    basis set group =>   4
Atom  18S    basis set group =>   2
Atom  19S    basis set group =>   2
Atom  20S    basis set group =>   2
Atom  21S    basis set group =>   2
Atom  22C    basis set group =>   4
Atom  23C    basis set group =>   4
Atom  24C    basis set group =>   4
Atom  25H    basis set group =>   5
Atom  26H    basis set group =>   5
Atom  27H    basis set group =>   5
Atom  28H    basis set group =>   5
Atom  29H    basis set group =>   5
Atom  30H    basis set group =>   5
Atom  31C    basis set group =>   4
Atom  32C    basis set group =>   4
Atom  33C    basis set group =>   4
Atom  34H    basis set group =>   5
Atom  35H    basis set group =>   5
Atom  36H    basis set group =>   5
Atom  37H    basis set group =>   5
Atom  38H    basis set group =>   5
Atom  39H    basis set group =>   5

-------------------------------------
AUXILIARY/J BASIS SET IN INPUT FORMAT
-------------------------------------

 # Auxiliary/J basis set for element : H 
 NewAuxJGTO H 
 S 3 
   1      15.6752927000      0.1007184237
   2       3.6063578000      0.3404257499
   3       1.2080016000      0.6491996172
 S 1 
   1       0.4726794000      1.0000000000
 S 1 
   1       0.2018100000      1.0000000000
 P 2 
   1       2.0281365000      0.5596620919
   2       0.5358730000      0.5596620919
 D 1 
   1       2.2165124000      1.0000000000
  end;

 # Auxiliary/J basis set for element : C 
 NewAuxJGTO C 
 S 7 
   1    1861.0916331000      0.0134602335
   2     642.9939764000      0.0299160374
   3     235.1105725000      0.1008649584
   4      90.7028894000      0.2370970548
   5      36.7794552000      0.3924037254
   6      15.6046273000      0.3195862154
   7       6.8907294000      0.0530104441
 S 1 
   1       3.1478850000     -1.0000000000
 S 1 
   1       1.4777287000      1.0000000000
 S 1 
   1       0.7076466000      1.0000000000
 S 1 
   1       0.3430122000      1.0000000000
 S 1 
   1       0.1669453000      1.0000000000
 P 2 
   1      13.5472892000     -0.6769313712
   2       5.4669419000     -0.3779500978
 P 1 
   1       2.1751721000      1.0000000000
 P 1 
   1       0.8582194000      1.0000000000
 P 1 
   1       0.3376720000      1.0000000000
 D 2 
   1       5.9287253000     -0.3533329857
   2       1.9809209000     -0.7456525731
 D 1 
   1       0.8055417000     -1.0000000000
 D 1 
   1       0.3531244000     -1.0000000000
 F 2 
   1       1.6755626000      0.6311076882
   2       0.5997536000      0.4968166032
 G 1 
   1       1.0024600000     -1.0000000000
  end;

 # Auxiliary/J basis set for element : O 
 NewAuxJGTO O 
 S 7 
   1    2876.8216605000      0.0168151159
   2    1004.7443032000      0.0340137548
   3     369.7579954000      0.1194951309
   4     142.9442404000      0.2664627624
   5      57.8366425000      0.4202764046
   6      24.3864983000      0.2765077335
   7      10.6622662000      0.0057008815
 S 1 
   1       4.8070437000     -1.0000000000
 S 1 
   1       2.2210770000      1.0000000000
 S 1 
   1       1.0447795000      1.0000000000
 S 1 
   1       0.4968425000      1.0000000000
 S 1 
   1       0.2371384000      1.0000000000
 P 2 
   1      64.2613382000     -0.2731534179
   2      16.3006076000     -0.8168011598
 P 1 
   1       4.3550542000      1.0000000000
 P 1 
   1       1.2019554000      1.0000000000
 P 1 
   1       0.3354196000      1.0000000000
 D 2 
   1       9.2146611000     -0.4661230638
   2       2.8435251000     -0.6600908911
 D 1 
   1       0.9955759000     -1.0000000000
 D 1 
   1       0.3649441000     -1.0000000000
 F 2 
   1       2.6420115000      0.5931563945
   2       0.7345613000      0.5931563945
 G 1 
   1       1.3931000000     -1.0000000000
  end;

 # Auxiliary/J basis set for element : S 
 NewAuxJGTO S 
 S 7 
   1    7399.0303145000      0.0295137551
   2    2710.1675859000      0.0559686311
   3    1034.3279062000      0.1764696370
   4     410.4645411000      0.3577969368
   5     168.9762502000      0.4299293578
   6      71.9687889000      0.1259148089
   7      31.6172683000     -0.0646025788
 S 1 
   1      14.2796836000      1.0000000000
 S 1 
   1       6.6060948000      1.0000000000
 S 1 
   1       3.1181477000      1.0000000000
 S 1 
   1       1.4954039000     -1.0000000000
 S 1 
   1       0.7254779000      1.0000000000
 S 1 
   1       0.3544216000      1.0000000000
 S 1 
   1       0.1735525000      1.0000000000
 P 2 
   1      12.6998799000      1.4059102813
   2       4.4295784000     -1.2124994202
 P 1 
   1       1.5232889000      1.0000000000
 P 1 
   1       0.5194667000     -1.0000000000
 P 1 
   1       0.1766547000     -1.0000000000
 D 3 
   1      16.8546461000      1.0295742104
   2       5.0810461000     -0.7461553923
   3       1.5102323000      0.8357028005
 D 1 
   1       0.4451331000      1.0000000000
 D 1 
   1       0.1308362000      1.0000000000
 F 2 
   1       1.0809860000      0.5572698934
   2       0.4161474000      0.5572698934
 G 1 
   1       0.6707100000     -1.0000000000
  end;

 # Auxiliary/J basis set for element : V 
 NewAuxJGTO V 
 S 12 
   1   11942.0842430000      0.0459866720
   2    2430.7110193000      0.1744615821
   3     841.0764301000      0.2900402792
   4     494.7508273000      0.1411212903
   5     291.0298903000      0.2660697186
   6     171.1940483000      0.0446365706
   7      59.2366916000     -0.0408204801
   8      34.8451117000      0.1394665381
   9      20.4971240000      0.2164746715
  10      12.0571314000      0.0864266611
  11       7.0924300000     -0.0568501658
  12       4.1720176000     -0.0126212852
 S 1 
   1       2.4541279000      1.0000000000
 S 1 
   1       1.4436046000      1.0000000000
 S 1 
   1       0.8491792000      1.0000000000
 S 1 
   1       0.2938336000      1.0000000000
 S 1 
   1       0.1728433000      1.0000000000
 S 1 
   1       0.1016725000      1.0000000000
 S 1 
   1       0.0598074000      1.0000000000
 P 1 
   1      16.7130979000     -1.0000000000
 P 1 
   1       4.7454037000     -1.0000000000
 P 1 
   1       1.3889998000      1.0000000000
 P 1 
   1       0.4142440000     -1.0000000000
 P 1 
   1       0.1243234000      1.0000000000
 D 1 
   1       7.7143225000      1.0000000000
 D 1 
   1       3.1170731000      1.0000000000
 D 1 
   1       1.2767950000     -1.0000000000
 D 1 
   1       0.5273386000      1.0000000000
 D 1 
   1       0.2184050000      1.0000000000
 F 2 
   1       3.1309344000     -1.0825667766
   2       1.0419780000      0.1809223232
 F 1 
   1       0.3559044000      1.0000000000
 G 1 
   1       8.7130110000      1.0000000000
 G 1 
   1       2.7493872000      1.0000000000
 G 1 
   1       0.8775089000      1.0000000000
  end;



           ************************************************************
           *        Program running with 8 parallel MPI-processes     *
           *              working on a common directory               *
           ************************************************************
------------------------------------------------------------------------------
                           ORCA GTO INTEGRAL CALCULATION
                           -- RI-GTO INTEGRALS CHOSEN --
------------------------------------------------------------------------------
------------------------------------------------------------------------------
                   ___                                                        
                  /   \      - P O W E R E D   B Y -                         
                 /     \                                                     
                 |  |  |   _    _      __       _____    __    __             
                 |  |  |  | |  | |    /  \     |  _  \  |  |  /  |          
                  \  \/   | |  | |   /    \    | | | |  |  | /  /          
                 / \  \   | |__| |  /  /\  \   | |_| |  |  |/  /          
                |  |  |   |  __  | /  /__\  \  |    /   |      \           
                |  |  |   | |  | | |   __   |  |    \   |  |\   \          
                \     /   | |  | | |  |  |  |  | |\  \  |  | \   \       
                 \___/    |_|  |_| |__|  |__|  |_| \__\ |__|  \__/        
                                                                              
                      - O R C A' S   B I G   F R I E N D -                    
                                      &                                       
                       - I N T E G R A L  F E E D E R -                       
                                                                              
 v1 FN, 2020, v2 2021                                                         
------------------------------------------------------------------------------


Reading SHARK input file input_43.SHARKINP.tmp ... ok
----------------------
SHARK INTEGRAL PACKAGE
----------------------

Number of atoms                             ...     40
Number of basis functions                   ...    681
Number of shells                            ...    331
Maximum angular momentum                    ...      3
Integral batch strategy                     ... SHARK/LIBINT Hybrid
RI-J (if used) integral strategy            ... SPLIT-RIJ (Revised 2003 algorithm where possible)
Printlevel                                  ...      1
Contraction scheme used                     ... SEGMENTED contraction
Coulomb Range Separation                    ... NOT USED
Exchange Range Separation                   ... NOT USED
Finite Nucleus Model                        ... NOT USED
Auxiliary Coulomb fitting basis             ... AVAILABLE
   # of basis functions in Aux-J            ...   1568
   # of shells in Aux-J                     ...    512
   Maximum angular momentum in Aux-J        ...      4
Auxiliary J/K fitting basis                 ... NOT available
Auxiliary Correlation fitting basis         ... NOT available
Auxiliary 'external' fitting basis          ... NOT available
Integral threshold                          ...     1.000000e-10
Primitive cut-off                           ...     1.000000e-11
Primitive pair pre-selection threshold      ...     1.000000e-11

Calculating pre-screening integrals         ... done (  0.1 sec) Dimension = 331
Organizing shell pair data                  ... done (  0.1 sec)
Shell pair information
Total number of shell pairs                 ...     54946
Shell pairs after pre-screening             ...     22690
Total number of primitive shell pairs       ...    221635
Primitive shell pairs kept                  ...     55295
          la=0 lb=0:   6415 shell pairs
          la=1 lb=0:   9078 shell pairs
          la=1 lb=1:   3197 shell pairs
          la=2 lb=0:   2137 shell pairs
          la=2 lb=1:   1540 shell pairs
          la=2 lb=2:    197 shell pairs
          la=3 lb=0:     57 shell pairs
          la=3 lb=1:     56 shell pairs
          la=3 lb=2:     12 shell pairs
          la=3 lb=3:      1 shell pairs

Calculating one electron integrals          ... done (  0.0 sec)
Calculating RI/J V-Matrix + Cholesky decomp.... done (  0.1 sec)
Calculating Nuclear repulsion               ... done (  0.0 sec) ENN=   5065.869547086243 Eh

SHARK setup successfully completed in   0.7 seconds

Maximum memory used throughout the entire GTOINT-calculation: 39.7 MB


           ************************************************************
           *        Program running with 8 parallel MPI-processes     *
           *              working on a common directory               *
           ************************************************************
-------------------------------------------------------------------------------
                                 ORCA SCF
-------------------------------------------------------------------------------

------------
SCF SETTINGS
------------
Hamiltonian:
 Density Functional     Method          .... DFT(GTOs)
 Exchange Functional    Exchange        .... B88
   X-Alpha parameter    XAlpha          ....  0.666667
   Becke's b parameter  XBeta           ....  0.004200
 Correlation Functional Correlation     .... LYP
 LDA part of GGA corr.  LDAOpt          .... VWN-5
 Gradients option       PostSCFGGA      .... off
 Hybrid DFT is turned on
   Fraction HF Exchange ScalHFX         ....  0.200000
   Scaling of DF-GGA-X  ScalDFX         ....  0.720000
   Scaling of DF-GGA-C  ScalDFC         ....  0.810000
   Scaling of DF-LDA-C  ScalLDAC        ....  1.000000
   Perturbative correction              ....  0.000000
   Density functional embedding theory  .... OFF
   NL short-range parameter             ....  4.800000
 RI-approximation to the Coulomb term is turned on
   Number of AuxJ basis functions       .... 1568
   RIJ-COSX (HFX calculated with COS-X)).... on


General Settings:
 Integral files         IntName         .... input_43
 Hartree-Fock type      HFTyp           .... UHF
 Total Charge           Charge          ....   -2
 Multiplicity           Mult            ....    2
 Number of Electrons    NEL             ....  321
 Basis Dimension        Dim             ....  681
 Nuclear Repulsion      ENuc            ....   5065.8695470862 Eh

Convergence Acceleration:
 DIIS                   CNVDIIS         .... on
   Start iteration      DIISMaxIt       ....    12
   Startup error        DIISStart       ....  0.200000
   # of expansion vecs  DIISMaxEq       ....     5
   Bias factor          DIISBfac        ....   1.050
   Max. coefficient     DIISMaxC        ....  10.000
 Trust-Rad. Augm. Hess. CNVTRAH         .... auto
   Auto Start mean grad. ratio tolernc. ....  1.125000
   Auto Start start iteration           ....    20
   Auto Start num. interpolation iter.  ....    10
   Max. Number of Micro iterations      ....    16
   Max. Number of Macro iterations      .... Maxiter - #DIIS iter
   Number of Davidson start vectors     ....     2
   Converg. threshold I  (grad. norm)   ....   5.000e-05
   Converg. threshold II (energy diff.) ....   1.000e-06
   Grad. Scal. Fac. for Micro threshold ....   0.100
   Minimum threshold for Micro iter.    ....   0.010
   NR start threshold (gradient norm)   ....   0.001
   Initial trust radius                 ....   0.400
   Minimum AH scaling param. (alpha)    ....   1.000
   Maximum AH scaling param. (alpha)    .... 1000.000
   Orbital update algorithm             .... Taylor
   White noise on init. David. guess    .... on
   Maximum white noise                  ....   0.010
   Quad. conv. algorithm                .... NR
 SOSCF                  CNVSOSCF        .... off
 Level Shifting         CNVShift        .... on
   Level shift para.    LevelShift      ....    0.2500
   Turn off err/grad.   ShiftErr        ....    0.0010
 Zerner damping         CNVZerner       .... off
 Static damping         CNVDamp         .... on
   Fraction old density DampFac         ....    0.7000
   Max. Damping (<1)    DampMax         ....    0.9800
   Min. Damping (>=0)   DampMin         ....    0.0000
   Turn off err/grad.   DampErr         ....    0.1000
 Fernandez-Rico         CNVRico         .... off

SCF Procedure:
 Maximum # iterations   MaxIter         ....   125
 SCF integral mode      SCFMode         .... Direct
   Integral package                     .... SHARK and LIBINT hybrid scheme
 Reset frequency        DirectResetFreq ....    20
 Integral Threshold     Thresh          ....  1.000e-10 Eh
 Primitive CutOff       TCut            ....  1.000e-11 Eh

Convergence Tolerance:
 Convergence Check Mode ConvCheckMode   .... Total+1el-Energy
 Convergence forced     ConvForced      .... 0
 Energy Change          TolE            ....  1.000e-06 Eh
 1-El. energy change                    ....  1.000e-03 Eh
 DIIS Error             TolErr          ....  1.000e-06


Diagonalization of the overlap matrix:
Smallest eigenvalue                        ... 8.539e-05
Time for diagonalization                   ...    0.196 sec
Threshold for overlap eigenvalues          ... 1.000e-08
Number of eigenvalues below threshold      ... 0
Time for construction of square roots      ...    0.159 sec
Total time needed                          ...    0.360 sec

Time for model grid setup =    0.352 sec

------------------------------
INITIAL GUESS: MODEL POTENTIAL
------------------------------
Loading Hartree-Fock densities                     ... done
Calculating cut-offs                               ... done
Initializing the effective Hamiltonian             ... done
Setting up the integral package (SHARK)            ... done
Starting the Coulomb interaction                   ... done (   0.3 sec)
Reading the grid                                   ... done
Mapping shells                                     ... done
Starting the XC term evaluation                    ... done (   0.2 sec)
  promolecular density results
     # of electrons  =    318.992613916
     EX              =   -428.291656938
     EC              =    -12.538868275
     EX+EC           =   -440.830525213
Transforming the Hamiltonian                       ... done (   0.2 sec)
Diagonalizing the Hamiltonian                      ... done (   0.2 sec)
Back transforming the eigenvectors                 ... done (   0.1 sec)
Now organizing SCF variables                       ... done
                      ------------------
                      INITIAL GUESS DONE (   1.3 sec)
                      ------------------
-------------------
DFT GRID GENERATION
-------------------

General Integration Accuracy     IntAcc      ... 4.388
Radial Grid Type                 RadialGrid  ... OptM3 with GC (2021)
Angular Grid (max. ang.)         AngularGrid ... 4 (Lebedev-302)
Angular grid pruning method      GridPruning ... 4 (adaptive)
Weight generation scheme         WeightScheme... Becke
Basis function cutoff            BFCut       ... 1.0000e-10
Integration weight cutoff        WCut        ... 1.0000e-14
Angular grids for H and He will be reduced by one unit
Partially contracted basis set               ... off
Rotationally invariant grid construction     ... off

Total number of grid points                  ...   237347
Total number of batches                      ...     3732
Average number of points per batch           ...       63
Average number of grid points per atom       ...     5934
Time for grid setup =    1.872 sec

--------------------
COSX GRID GENERATION
--------------------

GRIDX 1
-------
General Integration Accuracy     IntAcc      ... 3.816
Radial Grid Type                 RadialGrid  ... OptM3 with GC (2021)
Angular Grid (max. ang.)         AngularGrid ... 1 (Lebedev-50)
Angular grid pruning method      GridPruning ... 4 (adaptive)
Weight generation scheme         WeightScheme... Becke
Basis function cutoff            BFCut       ... 1.0000e-10
Integration weight cutoff        WCut        ... 1.0000e-14
Angular grids for H and He will be reduced by one unit
Partially contracted basis set               ... on
Rotationally invariant grid construction     ... off

Total number of grid points                  ...    29236
Total number of batches                      ...      481
Average number of points per batch           ...       60
Average number of grid points per atom       ...      731
UseSFitting                                  ... on

GRIDX 2
-------
General Integration Accuracy     IntAcc      ... 4.020
Radial Grid Type                 RadialGrid  ... OptM3 with GC (2021)
Angular Grid (max. ang.)         AngularGrid ... 2 (Lebedev-110)
Angular grid pruning method      GridPruning ... 4 (adaptive)
Weight generation scheme         WeightScheme... Becke
Basis function cutoff            BFCut       ... 1.0000e-10
Integration weight cutoff        WCut        ... 1.0000e-14
Angular grids for H and He will be reduced by one unit
Partially contracted basis set               ... on
Rotationally invariant grid construction     ... off

Total number of grid points                  ...    64105
Total number of batches                      ...     1022
Average number of points per batch           ...       62
Average number of grid points per atom       ...     1603
UseSFitting                                  ... on

GRIDX 3
-------
General Integration Accuracy     IntAcc      ... 4.338
Radial Grid Type                 RadialGrid  ... OptM3 with GC (2021)
Angular Grid (max. ang.)         AngularGrid ... 3 (Lebedev-194)
Angular grid pruning method      GridPruning ... 4 (adaptive)
Weight generation scheme         WeightScheme... Becke
Basis function cutoff            BFCut       ... 1.0000e-10
Integration weight cutoff        WCut        ... 1.0000e-14
Angular grids for H and He will be reduced by one unit
Partially contracted basis set               ... on
Rotationally invariant grid construction     ... off

Total number of grid points                  ...   147281
Total number of batches                      ...     2322
Average number of points per batch           ...       63
Average number of grid points per atom       ...     3682
UseSFitting                                  ... on

Time for X-Grid setup             =    1.911 sec

--------------
SCF ITERATIONS
--------------
ITER       Energy         Delta-E        Max-DP      RMS-DP      [F,P]     Damp
               ***  Starting incremental Fock matrix formation  ***
  0  -6336.7897968085   0.000000000000 0.05206343  0.00067660  0.2275606 0.7000
  1  -6337.1433189817  -0.353522173183 0.14012014  0.00064998  0.1558614 0.7000
                               ***Turning on DIIS***
  2  -6337.3088872039  -0.165568222192 0.08088349  0.00035034  0.1091213 0.7000
  3  -6337.4000986704  -0.091211466541 0.04330214  0.00059419  0.0772420 0.0000
  4  -6337.6238413553  -0.223742684886 0.08851922  0.00033647  0.0145832 0.0000
  5  -6337.6300205470  -0.006179191694 0.02271669  0.00009819  0.0102123 0.0000
  6  -6337.6317368386  -0.001716291597 0.00594807  0.00004796  0.0041188 0.0000
  7  -6337.6322582289  -0.000521390321 0.00305452  0.00002933  0.0016711 0.0000
  8  -6337.6325187633  -0.000260534406 0.00495048  0.00002627  0.0014550 0.0000
  9  -6337.6326877058  -0.000168942538 0.00322499  0.00002089  0.0011239 0.0000
 10  -6337.6328001129  -0.000112407027 0.00448886  0.00005276  0.0006799 0.0000
               *** Restarting incremental Fock matrix formation ***
                                   *** Resetting DIIS ***
 11  -6337.6329517498  -0.000151636897 0.00240955  0.00001470  0.0008787 0.0000
 12  -6337.6329073532   0.000044396521 0.00047122  0.00000332  0.0028596 0.0000
 13  -6337.6329568120  -0.000049458770 0.00114914  0.00000634  0.0009871 0.0000
 14  -6337.6329649394  -0.000008127424 0.00043672  0.00000319  0.0002854 0.0000
 15  -6337.6329658511  -0.000000911623 0.00021230  0.00000169  0.0001601 0.0000
 16  -6337.6329665291  -0.000000678025 0.00013516  0.00000109  0.0000930 0.0000
 17  -6337.6329668709  -0.000000341856 0.00013990  0.00000093  0.0000828 0.0000
                 **** Energy Check signals convergence ****

               *****************************************************
               *                     SUCCESS                       *
               *           SCF CONVERGED AFTER  18 CYCLES          *
               *****************************************************

Old exchange energy                            =    -85.933790615 Eh
New exchange energy                            =    -85.933711206 Eh
Exchange energy change after final integration =      0.000079410 Eh
Total energy after final integration           =  -6337.632887472 Eh
Final COS-X integration done in                =    27.094 sec

----------------
TOTAL SCF ENERGY
----------------

Total Energy       :        -6337.63288747 Eh         -172455.75835 eV

Components:
Nuclear Repulsion  :         5065.86954709 Eh          137849.31850 eV
Electronic Energy  :       -11403.50243456 Eh         -310305.07685 eV
One Electron Energy:       -18901.86485216 Eh         -514345.89147 eV
Two Electron Energy:         7498.36241760 Eh          204040.81462 eV
Max COSX asymmetry :            0.00000164 Eh               0.00004 eV

Virial components:
Potential Energy   :       -12659.25327722 Eh         -344475.79448 eV
Kinetic Energy     :         6321.62038975 Eh          172020.03613 eV
Virial Ratio       :            2.00253297


DFT components:
N(Alpha)           :      161.000078970939 electrons
N(Beta)            :      160.000075532603 electrons
N(Total)           :      321.000154503542 electrons
E(X)               :     -341.496624489225 Eh       
E(C)               :      -14.723420909495 Eh       
E(XC)              :     -356.220045398720 Eh       
DFET-embed. en.    :        0.000000000000 Eh       

---------------
SCF CONVERGENCE
---------------

  Last Energy change         ...   -1.1205e-08  Tolerance :   1.0000e-06
  Last MAX-Density change    ...    0.0000e+00  Tolerance :   1.0000e-05
  Last RMS-Density change    ...    0.0000e+00  Tolerance :   1.0000e-06
  Last DIIS Error            ...    1.6527e-05  Tolerance :   1.0000e-06

             **** THE GBW FILE WAS UPDATED (input_43.gbw) ****
             **** DENSITY input_43.scfp WAS UPDATED ****
             **** ENERGY FILE WAS UPDATED (input_43.en.tmp) ****
----------------------
UHF SPIN CONTAMINATION
----------------------

Warning: in a DFT calculation there is little theoretical justification to 
         calculate <S**2> as in Hartree-Fock theory. We will do it anyways
         but you should keep in mind that the values have only limited relevance

Expectation value of <S**2>     :     0.765872
Ideal value S*(S+1) for S=0.5   :     0.750000
Deviation                       :     0.015872

             **** THE GBW FILE WAS UPDATED (input_43.gbw) ****
             **** DENSITY input_43.scfp WAS UPDATED ****
----------------
ORBITAL ENERGIES
----------------
                 SPIN UP ORBITALS
  NO   OCC          E(Eh)            E(eV) 
   0   1.0000    -196.675745     -5351.8191 
   1   1.0000     -88.734443     -2414.5870 
   2   1.0000     -88.734378     -2414.5852 
   3   1.0000     -88.734218     -2414.5808 
   4   1.0000     -88.734114     -2414.5780 
   5   1.0000     -88.728932     -2414.4370 
   6   1.0000     -88.728704     -2414.4308 
   7   1.0000     -88.723915     -2414.3005 
   8   1.0000     -88.723782     -2414.2969 
   9   1.0000     -88.652501     -2412.3572 
  10   1.0000     -88.652228     -2412.3498 
  11   1.0000     -88.630767     -2411.7658 
  12   1.0000     -88.630357     -2411.7546 
  13   1.0000     -22.050996      -600.0381 
  14   1.0000     -18.890515      -514.0370 
  15   1.0000     -18.557474      -504.9745 
  16   1.0000     -18.552272      -504.8330 
  17   1.0000     -18.552176      -504.8304 
  18   1.0000     -10.075384      -274.1651 
  19   1.0000     -10.070808      -274.0406 
  20   1.0000     -10.063814      -273.8503 
  21   1.0000     -10.063762      -273.8489 
  22   1.0000     -10.062214      -273.8068 
  23   1.0000     -10.062154      -273.8051 
  24   1.0000     -10.055502      -273.6241 
  25   1.0000     -10.055049      -273.6118 
  26   1.0000     -10.048379      -273.4303 
  27   1.0000     -10.041734      -273.2495 
  28   1.0000     -10.040879      -273.2262 
  29   1.0000     -10.033317      -273.0204 
  30   1.0000      -9.997190      -272.0374 
  31   1.0000      -9.996219      -272.0109 
  32   1.0000      -7.787076      -211.8971 
  33   1.0000      -7.787015      -211.8955 
  34   1.0000      -7.786242      -211.8744 
  35   1.0000      -7.786143      -211.8717 
  36   1.0000      -7.784894      -211.8377 
  37   1.0000      -7.784671      -211.8317 
  38   1.0000      -7.778692      -211.6690 
  39   1.0000      -7.778573      -211.6657 
  40   1.0000      -7.704485      -209.6497 
  41   1.0000      -7.704104      -209.6393 
  42   1.0000      -7.687580      -209.1897 
  43   1.0000      -7.687280      -209.1815 
  44   1.0000      -5.751820      -156.5150 
  45   1.0000      -5.751766      -156.5135 
  46   1.0000      -5.751318      -156.5013 
  47   1.0000      -5.751209      -156.4983 
  48   1.0000      -5.749759      -156.4589 
  49   1.0000      -5.749538      -156.4529 
  50   1.0000      -5.748097      -156.4137 
  51   1.0000      -5.748007      -156.4112 
  52   1.0000      -5.747975      -156.4104 
  53   1.0000      -5.747910      -156.4086 
  54   1.0000      -5.745967      -156.3557 
  55   1.0000      -5.745751      -156.3498 
  56   1.0000      -5.743833      -156.2976 
  57   1.0000      -5.743717      -156.2945 
  58   1.0000      -5.742808      -156.2698 
  59   1.0000      -5.742744      -156.2680 
  60   1.0000      -5.740964      -156.2196 
  61   1.0000      -5.740866      -156.2169 
  62   1.0000      -5.739774      -156.1872 
  63   1.0000      -5.739545      -156.1810 
  64   1.0000      -5.738732      -156.1588 
  65   1.0000      -5.738610      -156.1555 
  66   1.0000      -5.734474      -156.0430 
  67   1.0000      -5.734354      -156.0397 
  68   1.0000      -5.670709      -154.3078 
  69   1.0000      -5.670360      -154.2983 
  70   1.0000      -5.662949      -154.0967 
  71   1.0000      -5.662604      -154.0873 
  72   1.0000      -5.661476      -154.0566 
  73   1.0000      -5.661058      -154.0452 
  74   1.0000      -5.652270      -153.8061 
  75   1.0000      -5.651959      -153.7976 
  76   1.0000      -5.646316      -153.6441 
  77   1.0000      -5.646011      -153.6358 
  78   1.0000      -5.644991      -153.6080 
  79   1.0000      -5.644671      -153.5993 
  80   1.0000      -2.444651       -66.5223 
  81   1.0000      -1.485852       -40.4321 
  82   1.0000      -1.474326       -40.1184 
  83   1.0000      -1.473561       -40.0976 
  84   1.0000      -0.731174       -19.8962 
  85   1.0000      -0.708594       -19.2818 
  86   1.0000      -0.687380       -18.7045 
  87   1.0000      -0.684696       -18.6315 
  88   1.0000      -0.650120       -17.6907 
  89   1.0000      -0.634383       -17.2624 
  90   1.0000      -0.623710       -16.9720 
  91   1.0000      -0.619401       -16.8547 
  92   1.0000      -0.614378       -16.7181 
  93   1.0000      -0.595659       -16.2087 
  94   1.0000      -0.573064       -15.5939 
  95   1.0000      -0.568862       -15.4795 
  96   1.0000      -0.565623       -15.3914 
  97   1.0000      -0.500258       -13.6127 
  98   1.0000      -0.497606       -13.5406 
  99   1.0000      -0.494100       -13.4451 
 100   1.0000      -0.491269       -13.3681 
 101   1.0000      -0.479263       -13.0414 
 102   1.0000      -0.473528       -12.8854 
 103   1.0000      -0.449078       -12.2200 
 104   1.0000      -0.442189       -12.0326 
 105   1.0000      -0.418670       -11.3926 
 106   1.0000      -0.412448       -11.2233 
 107   1.0000      -0.358852        -9.7649 
 108   1.0000      -0.353197        -9.6110 
 109   1.0000      -0.328045        -8.9266 
 110   1.0000      -0.324602        -8.8329 
 111   1.0000      -0.319945        -8.7061 
 112   1.0000      -0.310920        -8.4606 
 113   1.0000      -0.305241        -8.3060 
 114   1.0000      -0.297665        -8.0999 
 115   1.0000      -0.292728        -7.9655 
 116   1.0000      -0.287815        -7.8318 
 117   1.0000      -0.268063        -7.2944 
 118   1.0000      -0.263072        -7.1586 
 119   1.0000      -0.251251        -6.8369 
 120   1.0000      -0.249416        -6.7870 
 121   1.0000      -0.247953        -6.7472 
 122   1.0000      -0.228799        -6.2259 
 123   1.0000      -0.226814        -6.1719 
 124   1.0000      -0.225796        -6.1442 
 125   1.0000      -0.222591        -6.0570 
 126   1.0000      -0.220930        -6.0118 
 127   1.0000      -0.213652        -5.8138 
 128   1.0000      -0.206796        -5.6272 
 129   1.0000      -0.191662        -5.2154 
 130   1.0000      -0.190169        -5.1748 
 131   1.0000      -0.188957        -5.1418 
 132   1.0000      -0.182258        -4.9595 
 133   1.0000      -0.175465        -4.7746 
 134   1.0000      -0.158227        -4.3056 
 135   1.0000      -0.154151        -4.1946 
 136   1.0000      -0.143613        -3.9079 
 137   1.0000      -0.134646        -3.6639 
 138   1.0000      -0.132452        -3.6042 
 139   1.0000      -0.132203        -3.5974 
 140   1.0000      -0.125070        -3.4033 
 141   1.0000      -0.119292        -3.2461 
 142   1.0000      -0.114014        -3.1025 
 143   1.0000      -0.111087        -3.0228 
 144   1.0000      -0.105482        -2.8703 
 145   1.0000      -0.098231        -2.6730 
 146   1.0000      -0.094413        -2.5691 
 147   1.0000      -0.091477        -2.4892 
 148   1.0000      -0.075254        -2.0478 
 149   1.0000      -0.068323        -1.8592 
 150   1.0000      -0.063002        -1.7144 
 151   1.0000      -0.058021        -1.5788 
 152   1.0000      -0.047170        -1.2835 
 153   1.0000      -0.036521        -0.9938 
 154   1.0000      -0.033873        -0.9217 
 155   1.0000      -0.029891        -0.8134 
 156   1.0000      -0.024869        -0.6767 
 157   1.0000      -0.018016        -0.4902 
 158   1.0000      -0.015445        -0.4203 
 159   1.0000       0.012868         0.3502 
 160   1.0000       0.046709         1.2710 
 161   0.0000       0.134444         3.6584 
 162   0.0000       0.138931         3.7805 
 163   0.0000       0.150067         4.0835 
 164   0.0000       0.160898         4.3782 
 165   0.0000       0.162987         4.4351 
 166   0.0000       0.167940         4.5699 
 167   0.0000       0.169788         4.6202 
 168   0.0000       0.173135         4.7112 
 169   0.0000       0.175112         4.7650 
 170   0.0000       0.175832         4.7846 
 171   0.0000       0.178974         4.8701 
 172   0.0000       0.191239         5.2039 
 173   0.0000       0.191503         5.2111 
 174   0.0000       0.193676         5.2702 
 175   0.0000       0.198276         5.3954 
 176   0.0000       0.200596         5.4585 
 177   0.0000       0.200755         5.4628 
 178   0.0000       0.202491         5.5101 
 179   0.0000       0.208610         5.6766 
 180   0.0000       0.213886         5.8201 
 181   0.0000       0.215486         5.8637 
 182   0.0000       0.217531         5.9193 
 183   0.0000       0.220726         6.0063 
 184   0.0000       0.227839         6.1998 
 185   0.0000       0.228685         6.2228 
 186   0.0000       0.230551         6.2736 
 187   0.0000       0.231424         6.2974 
 188   0.0000       0.233288         6.3481 
 189   0.0000       0.237946         6.4748 
 190   0.0000       0.241652         6.5757 
 191   0.0000       0.251391         6.8407 
 192   0.0000       0.255533         6.9534 
 193   0.0000       0.256931         6.9914 
 194   0.0000       0.261603         7.1186 
 195   0.0000       0.267368         7.2755 
 196   0.0000       0.270449         7.3593 
 197   0.0000       0.275289         7.4910 
 198   0.0000       0.275883         7.5072 
 199   0.0000       0.284410         7.7392 
 200   0.0000       0.285149         7.7593 
 201   0.0000       0.297784         8.1031 
 202   0.0000       0.303656         8.2629 
 203   0.0000       0.312785         8.5113 
 204   0.0000       0.315134         8.5752 
 205   0.0000       0.318811         8.6753 
 206   0.0000       0.325493         8.8571 
 207   0.0000       0.336821         9.1654 
 208   0.0000       0.337113         9.1733 
 209   0.0000       0.339273         9.2321 
 210   0.0000       0.346798         9.4369 
 211   0.0000       0.350752         9.5444 
 212   0.0000       0.351928         9.5764 
 213   0.0000       0.356954         9.7132 
 214   0.0000       0.361726         9.8431 
 215   0.0000       0.369927        10.0662 
 216   0.0000       0.372286        10.1304 
 217   0.0000       0.378406        10.2969 
 218   0.0000       0.383121        10.4253 
 219   0.0000       0.384172        10.4538 
 220   0.0000       0.385644        10.4939 
 221   0.0000       0.388013        10.5584 
 222   0.0000       0.396172        10.7804 
 223   0.0000       0.398454        10.8425 
 224   0.0000       0.400712        10.9039 
 225   0.0000       0.405362        11.0305 
 226   0.0000       0.407493        11.0885 
 227   0.0000       0.410688        11.1754 
 228   0.0000       0.415011        11.2930 
 229   0.0000       0.418722        11.3940 
 230   0.0000       0.420744        11.4490 
 231   0.0000       0.427385        11.6297 
 232   0.0000       0.428804        11.6684 
 233   0.0000       0.432200        11.7607 
 234   0.0000       0.436839        11.8870 
 235   0.0000       0.442009        12.0277 
 236   0.0000       0.449310        12.2264 
 237   0.0000       0.453418        12.3381 
 238   0.0000       0.455349        12.3907 
 239   0.0000       0.463901        12.6234 
 240   0.0000       0.464102        12.6288 
 241   0.0000       0.472254        12.8507 
 242   0.0000       0.475192        12.9306 
 243   0.0000       0.476458        12.9651 
 244   0.0000       0.477794        13.0014 
 245   0.0000       0.483538        13.1577 
 246   0.0000       0.484118        13.1735 
 247   0.0000       0.484695        13.1892 
 248   0.0000       0.488455        13.2915 
 249   0.0000       0.490403        13.3445 
 250   0.0000       0.496176        13.5016 
 251   0.0000       0.499577        13.5942 
 252   0.0000       0.506090        13.7714 
 253   0.0000       0.507084        13.7985 
 254   0.0000       0.509216        13.8565 
 255   0.0000       0.510703        13.8969 
 256   0.0000       0.514721        14.0063 
 257   0.0000       0.517200        14.0737 
 258   0.0000       0.521047        14.1784 
 259   0.0000       0.523905        14.2562 
 260   0.0000       0.527987        14.3673 
 261   0.0000       0.528404        14.3786 
 262   0.0000       0.532140        14.4803 
 263   0.0000       0.533332        14.5127 
 264   0.0000       0.536299        14.5934 
 265   0.0000       0.537219        14.6185 
 266   0.0000       0.543950        14.8016 
 267   0.0000       0.546734        14.8774 
 268   0.0000       0.550051        14.9677 
 269   0.0000       0.550699        14.9853 
 270   0.0000       0.552071        15.0226 
 271   0.0000       0.556293        15.1375 
 272   0.0000       0.561445        15.2777 
 273   0.0000       0.565585        15.3903 
 274   0.0000       0.570070        15.5124 
 275   0.0000       0.571360        15.5475 
 276   0.0000       0.572981        15.5916 
 277   0.0000       0.575670        15.6648 
 278   0.0000       0.580350        15.7921 
 279   0.0000       0.582149        15.8411 
 280   0.0000       0.589347        16.0370 
 281   0.0000       0.590140        16.0585 
 282   0.0000       0.593372        16.1465 
 283   0.0000       0.594277        16.1711 
 284   0.0000       0.602096        16.3839 
 285   0.0000       0.607216        16.5232 
 286   0.0000       0.610511        16.6129 
 287   0.0000       0.610888        16.6231 
 288   0.0000       0.614600        16.7241 
 289   0.0000       0.618231        16.8229 
 290   0.0000       0.622654        16.9433 
 291   0.0000       0.627294        17.0695 
 292   0.0000       0.629174        17.1207 
 293   0.0000       0.635389        17.2898 
 294   0.0000       0.637244        17.3403 
 295   0.0000       0.639979        17.4147 
 296   0.0000       0.646478        17.5916 
 297   0.0000       0.649776        17.6813 
 298   0.0000       0.653563        17.7844 
 299   0.0000       0.658720        17.9247 
 300   0.0000       0.667788        18.1714 
 301   0.0000       0.682172        18.5629 
 302   0.0000       0.685940        18.6654 
 303   0.0000       0.700699        19.0670 
 304   0.0000       0.705728        19.2038 
 305   0.0000       0.714912        19.4538 
 306   0.0000       0.716690        19.5021 
 307   0.0000       0.732750        19.9391 
 308   0.0000       0.742185        20.1959 
 309   0.0000       0.744221        20.2513 
 310   0.0000       0.750971        20.4350 
 311   0.0000       0.757760        20.6197 
 312   0.0000       0.761757        20.7284 
 313   0.0000       0.765969        20.8431 
 314   0.0000       0.770775        20.9739 
 315   0.0000       0.781768        21.2730 
 316   0.0000       0.785310        21.3694 
 317   0.0000       0.796822        21.6826 
 318   0.0000       0.800225        21.7752 
 319   0.0000       0.812266        22.1029 
 320   0.0000       0.818894        22.2832 
 321   0.0000       0.822143        22.3716 
 322   0.0000       0.832060        22.6415 
 323   0.0000       0.837074        22.7779 
 324   0.0000       0.841079        22.8869 
 325   0.0000       0.848274        23.0827 
 326   0.0000       0.858352        23.3569 
 327   0.0000       0.861137        23.4327 
 328   0.0000       0.867524        23.6065 
 329   0.0000       0.870312        23.6824 
 330   0.0000       0.872177        23.7331 
 331   0.0000       0.873588        23.7715 
 332   0.0000       0.877616        23.8811 
 333   0.0000       0.884502        24.0685 
 334   0.0000       0.885076        24.0842 
 335   0.0000       0.891253        24.2522 
 336   0.0000       0.895506        24.3680 
 337   0.0000       0.907495        24.6942 
 338   0.0000       0.912200        24.8222 
 339   0.0000       0.918726        24.9998 
 340   0.0000       0.923340        25.1254 
 341   0.0000       0.926620        25.2146 
 342   0.0000       0.941779        25.6271 
 343   0.0000       0.942348        25.6426 
 344   0.0000       0.945615        25.7315 
 345   0.0000       0.948397        25.8072 
 346   0.0000       0.951414        25.8893 
 347   0.0000       0.953373        25.9426 
 348   0.0000       0.974630        26.5210 
 349   0.0000       0.977164        26.5900 
 350   0.0000       0.978778        26.6339 
 351   0.0000       0.980924        26.6923 
 352   0.0000       0.985670        26.8214 
 353   0.0000       0.996849        27.1256 
 354   0.0000       1.008500        27.4427 
 355   0.0000       1.009808        27.4783 
 356   0.0000       1.010311        27.4920 
 357   0.0000       1.022950        27.8359 
 358   0.0000       1.025132        27.8953 
 359   0.0000       1.030400        28.0386 
 360   0.0000       1.032148        28.0862 
 361   0.0000       1.034005        28.1367 
 362   0.0000       1.042054        28.3557 
 363   0.0000       1.045180        28.4408 
 364   0.0000       1.054806        28.7027 
 365   0.0000       1.062495        28.9119 
 366   0.0000       1.064143        28.9568 
 367   0.0000       1.068873        29.0855 
 368   0.0000       1.070236        29.1226 
 369   0.0000       1.074343        29.2344 
 370   0.0000       1.084289        29.5050 
 371   0.0000       1.086148        29.5556 
 372   0.0000       1.092011        29.7151 
 373   0.0000       1.101871        29.9834 
 374   0.0000       1.109449        30.1896 
 375   0.0000       1.114851        30.3366 
 376   0.0000       1.118261        30.4294 
 377   0.0000       1.119370        30.4596 
 378   0.0000       1.134831        30.8803 
 379   0.0000       1.145679        31.1755 
 380   0.0000       1.154230        31.4082 
 381   0.0000       1.176907        32.0253 
 382   0.0000       1.177687        32.0465 
 383   0.0000       1.182194        32.1691 
 384   0.0000       1.184690        32.2370 
 385   0.0000       1.192899        32.4604 
 386   0.0000       1.206617        32.8337 
 387   0.0000       1.225646        33.3515 
 388   0.0000       1.225853        33.3571 
 389   0.0000       1.249927        34.0122 
 390   0.0000       1.259475        34.2721 
 391   0.0000       1.261520        34.3277 
 392   0.0000       1.264105        34.3980 
 393   0.0000       1.283267        34.9195 
 394   0.0000       1.292353        35.1667 
 395   0.0000       1.305111        35.5139 
 396   0.0000       1.308563        35.6078 
 397   0.0000       1.312467        35.7141 
 398   0.0000       1.317472        35.8502 
 399   0.0000       1.321415        35.9575 
 400   0.0000       1.344486        36.5853 
 401   0.0000       1.367321        37.2067 
 402   0.0000       1.368523        37.2394 
 403   0.0000       1.384168        37.6651 
 404   0.0000       1.396501        38.0007 
 405   0.0000       1.412598        38.4388 
 406   0.0000       1.424288        38.7568 
 407   0.0000       1.430620        38.9292 
 408   0.0000       1.430858        38.9356 
 409   0.0000       1.432689        38.9855 
 410   0.0000       1.435631        39.0655 
 411   0.0000       1.449106        39.4322 
 412   0.0000       1.461764        39.7766 
 413   0.0000       1.478458        40.2309 
 414   0.0000       1.489904        40.5423 
 415   0.0000       1.493429        40.6383 
 416   0.0000       1.496519        40.7224 
 417   0.0000       1.497580        40.7512 
 418   0.0000       1.504031        40.9268 
 419   0.0000       1.517624        41.2966 
 420   0.0000       1.520520        41.3754 
[...]
Total number of batches                      ...      302
Average number of points per batch           ...       58
Average number of grid points per atom       ...      445

Memory available               ... 821.8 MB
Memory needed per perturbation ...  41.3 MB
Perturbations treated per batch... 3
Number of batches              ... 1
     CP-SCF ITERATION   0:   4.2660e-02 (   4.7 sec   0/  3 done)
     CP-SCF ITERATION   1:   1.4026e-03 (   4.8 sec   1/  3 done)
     CP-SCF ITERATION   2:   1.3289e-04 (   3.9 sec   3/  3 done)
                    *** THE CP-SCF HAS CONVERGED ***

Forming final perturbed densities           ... done
Transforming perturbed density to AO basis  ... done

 Raw HFC matrix (all values in MHz): 
 -----------------------------------
                 0.0396               0.0022               0.1354
                 0.0019              -0.0762               0.0025
                 0.1349               0.0029               0.0826

 A(FC)           0.0151               0.0151               0.0151
 A(SD)          -0.0918              -0.0921               0.1838
 A(ORB+DIA)      0.0009               0.0006              -0.0010    A(PC) =   0.0002
 A(ORB)          0.0009               0.0006              -0.0010    A(PC) =   0.0002
 A(DIA)         -0.0000              -0.0000               0.0000    A(PC) =  -0.0000
             ----------           ----------           ----------
 A(Tot)         -0.0757              -0.0763               0.1980    A(iso)=    0.0153
 Orientation: 
  X           0.7017932           -0.2929520           -0.6493576
  Y          -0.3947498           -0.9187082           -0.0121586
  Z          -0.5930083            0.2648666           -0.7603860

Notes:  (1) The A matrix conforms to the "SAI" spin Hamiltonian convention.
        (2) Tensor is right-handed.

 Raw EFG matrix (all values in a.u.**-3):
 -----------------------------------
             0.1924       0.1633       0.0736
             0.1633      -0.0605       0.0310
             0.0736       0.0310      -0.1319

 V(El)       0.5269       0.8314      -1.3583
 V(Nuc)     -0.6652      -0.9807       1.6460
         ----------   ----------   ----------
 V(Tot)     -0.1383      -0.1493       0.2877 
 Orientation: 
  X       0.3140308    0.3490996    0.8829010
  Y      -0.8374200   -0.3363176    0.4308343
  Z       0.4473393   -0.8746541    0.1867289

Note: Tensor is right-handed


 Quadrupole tensor eigenvalues (in MHz;Q= 0.0029 I=  1.0)
  e**2qQ            =     0.193157 MHz 
  e**2qQ/(4I*(2I-1))=     0.048289 MHz 
  eta               =     0.038114
  NOTE: the diagonal representation of the SH term I*Q*I = e**2qQ/(4I(2I-1))*[-(1-eta),-(1+eta),2]

 RHO(0)=      0.442403531 a.u.**-3

 -----------------------------------------------------------
 Nucleus  39H : A:ISTP=    1 I=  0.5 P=533.5514 MHz/au**3
                Q:ISTP=    2 I=  1.0 Q=  0.0029 barn     
 -----------------------------------------------------------
 Solving for nuclear perturbation:
Forming RHS of the CP-SCF equations         ... 
Calc. nucleus orbit integrals (SHARK)       ... done

------------------------------------------------------------------------------
                           ORCA CP-SCF CALCULATION
------------------------------------------------------------------------------

Input orbitals are from        ... input_43.gbw
Input Perturbation             ... input_43.pin.tmp
Wavefunction output            ... input_43.pout.tmp
Perturbation mode              ... Imaginary perturbation
Solver                         ... POPLE
Max. number of iterations      ... 64
Convergence tolerance          ... 1.000e-03
Integral handling              ... Direct
DFT GridXC                     ... 1
COSX GridX                     ... 1
COSX IntAccX                   ... 3.067
COSX Algorithm                 ... Auto
Number of perturbations        ... 3
Number of operators            ... 2
Orbital ranges used for CP-SCF:
 Operator 0:  Orbitals   0...160  to 161...680
 Operator 1:  Orbitals   0...159  to 160...680
Variables per perturbation     ... 167080
DFT calculation                         ... on
XC functional terms                     ... off
Hybrid DFT                              ... on
   Exchange mixing (SCF)                ...  0.200
   Exchange mixing (CP-SCF)             ...  0.200
   GGA exch. scaling(SCF)               ...  0.720
   GGA exch. scaling (CP-SCF)           ...  0.720
   GGA corr. scaling (SCF)              ...  0.810
   GGA corr. scaling (CP-SCF)           ...  0.810

CP-SCF GRID
-----------

General Integration Accuracy     IntAcc      ... 3.467
Radial Grid Type                 RadialGrid  ... OptM3 with GC (2021)
Angular Grid (max. ang.)         AngularGrid ... 1 (Lebedev-50)
Angular grid pruning method      GridPruning ... 4 (adaptive)
Weight generation scheme         WeightScheme... Becke
Basis function cutoff            BFCut       ... 1.0000e-10
Integration weight cutoff        WCut        ... 1.0000e-14
Angular grids for H and He will be reduced by one unit
Partially contracted basis set               ... off
Rotationally invariant grid construction     ... off

Total number of grid points                  ...    39379
Total number of batches                      ...      637
Average number of points per batch           ...       61
Average number of grid points per atom       ...      984

CP-SCF GRIDX
------------

General Integration Accuracy     IntAcc      ... 3.067
Radial Grid Type                 RadialGrid  ... OptM3 with GC (2021)
Angular Grid (max. ang.)         AngularGrid ... 1 (Lebedev-50)
Angular grid pruning method      GridPruning ... 4 (adaptive)
Weight generation scheme         WeightScheme... Becke
Basis function cutoff            BFCut       ... 1.0000e-10
Integration weight cutoff        WCut        ... 1.0000e-14
Angular grids for H and He will be reduced by one unit
Partially contracted basis set               ... on
Rotationally invariant grid construction     ... off

Total number of grid points                  ...    17799
Total number of batches                      ...      302
Average number of points per batch           ...       58
Average number of grid points per atom       ...      445

Memory available               ... 819.7 MB
Memory needed per perturbation ...  41.3 MB
Perturbations treated per batch... 3
Number of batches              ... 1
     CP-SCF ITERATION   0:   4.4225e-02 (   4.8 sec   0/  3 done)
     CP-SCF ITERATION   1:   1.5665e-03 (   4.9 sec   1/  3 done)
     CP-SCF ITERATION   2:   1.6554e-04 (   3.9 sec   3/  3 done)
                    *** THE CP-SCF HAS CONVERGED ***

Forming final perturbed densities           ... done
Transforming perturbed density to AO basis  ... done

 Raw HFC matrix (all values in MHz): 
 -----------------------------------
                 0.0369              -0.0365               0.2078
                -0.0368              -0.1373              -0.0392
                 0.2072              -0.0387               0.0969

 A(FC)          -0.0015              -0.0015              -0.0015
 A(SD)          -0.1414              -0.1450               0.2864
 A(ORB+DIA)      0.0018               0.0008              -0.0014    A(PC) =   0.0004
 A(ORB)          0.0018               0.0008              -0.0015    A(PC) =   0.0004
 A(DIA)         -0.0000              -0.0001               0.0000    A(PC) =  -0.0000
             ----------           ----------           ----------
 A(Tot)         -0.1411              -0.1457               0.2834    A(iso)=   -0.0012
 Orientation: 
  X          -0.5590722            0.5149152           -0.6498466
  Y           0.5889008            0.7983340            0.1259316
  Z           0.5836387           -0.3122903           -0.7495603

Notes:  (1) The A matrix conforms to the "SAI" spin Hamiltonian convention.
        (2) Tensor is right-handed.

 Raw EFG matrix (all values in a.u.**-3):
 -----------------------------------
            -0.1395      -0.0250      -0.0359
            -0.0250       0.0074       0.2005
            -0.0359       0.2005       0.1321

 V(El)       0.6560       0.3997      -1.0558
 V(Nuc)     -0.7959      -0.5440       1.3400
         ----------   ----------   ----------
 V(Tot)     -0.1399      -0.1443       0.2842 
 Orientation: 
  X       0.2713062    0.9569990    0.1026932
  Y       0.7915176   -0.1611326   -0.5895221
  Z      -0.5476248    0.2412244   -0.8011978

Note: Tensor is right-handed


 Quadrupole tensor eigenvalues (in MHz;Q= 0.0029 I=  1.0)
  e**2qQ            =     0.190848 MHz 
  e**2qQ/(4I*(2I-1))=     0.047712 MHz 
  eta               =     0.015686
  NOTE: the diagonal representation of the SH term I*Q*I = e**2qQ/(4I(2I-1))*[-(1-eta),-(1+eta),2]

 RHO(0)=      0.442403591 a.u.**-3

 -----------------------------------------------------------
 Nucleus   0V : A:ISTP=   51 I=  3.5 P=140.5173 MHz/au**3
                Q:ISTP=   51 I=  3.5 Q= -0.0430 barn     
 -----------------------------------------------------------
 Solving for nuclear perturbation:
Forming RHS of the CP-SCF equations         ... 
Calc. nucleus orbit integrals (SHARK)       ... done

------------------------------------------------------------------------------
                           ORCA CP-SCF CALCULATION
------------------------------------------------------------------------------

Input orbitals are from        ... input_43.gbw
Input Perturbation             ... input_43.pin.tmp
Wavefunction output            ... input_43.pout.tmp
Perturbation mode              ... Imaginary perturbation
Solver                         ... POPLE
Max. number of iterations      ... 64
Convergence tolerance          ... 1.000e-03
Integral handling              ... Direct
DFT GridXC                     ... 1
COSX GridX                     ... 1
COSX IntAccX                   ... 3.067
COSX Algorithm                 ... Auto
Number of perturbations        ... 3
Number of operators            ... 2
Orbital ranges used for CP-SCF:
 Operator 0:  Orbitals   0...160  to 161...680
 Operator 1:  Orbitals   0...159  to 160...680
Variables per perturbation     ... 167080
DFT calculation                         ... on
XC functional terms                     ... off
Hybrid DFT                              ... on
   Exchange mixing (SCF)                ...  0.200
   Exchange mixing (CP-SCF)             ...  0.200
   GGA exch. scaling(SCF)               ...  0.720
   GGA exch. scaling (CP-SCF)           ...  0.720
   GGA corr. scaling (SCF)              ...  0.810
   GGA corr. scaling (CP-SCF)           ...  0.810

CP-SCF GRID
-----------

General Integration Accuracy     IntAcc      ... 3.467
Radial Grid Type                 RadialGrid  ... OptM3 with GC (2021)
Angular Grid (max. ang.)         AngularGrid ... 1 (Lebedev-50)
Angular grid pruning method      GridPruning ... 4 (adaptive)
Weight generation scheme         WeightScheme... Becke
Basis function cutoff            BFCut       ... 1.0000e-10
Integration weight cutoff        WCut        ... 1.0000e-14
Angular grids for H and He will be reduced by one unit
Partially contracted basis set               ... off
Rotationally invariant grid construction     ... off

Total number of grid points                  ...    39379
Total number of batches                      ...      637
Average number of points per batch           ...       61
Average number of grid points per atom       ...      984

CP-SCF GRIDX
------------

General Integration Accuracy     IntAcc      ... 3.067
Radial Grid Type                 RadialGrid  ... OptM3 with GC (2021)
Angular Grid (max. ang.)         AngularGrid ... 1 (Lebedev-50)
Angular grid pruning method      GridPruning ... 4 (adaptive)
Weight generation scheme         WeightScheme... Becke
Basis function cutoff            BFCut       ... 1.0000e-10
Integration weight cutoff        WCut        ... 1.0000e-14
Angular grids for H and He will be reduced by one unit
Partially contracted basis set               ... on
Rotationally invariant grid construction     ... off

Total number of grid points                  ...    17799
Total number of batches                      ...      302
Average number of points per batch           ...       58
Average number of grid points per atom       ...      445

Memory available               ... 817.6 MB
Memory needed per perturbation ...  41.3 MB
Perturbations treated per batch... 3
Number of batches              ... 1
     CP-SCF ITERATION   0:   1.2399e+01 (   5.2 sec   0/  3 done)
     CP-SCF ITERATION   1:   2.1298e+00 (   4.9 sec   0/  3 done)
     CP-SCF ITERATION   2:   3.8152e-01 (   4.9 sec   0/  3 done)
     CP-SCF ITERATION   3:   8.0181e-02 (   4.9 sec   0/  3 done)
     CP-SCF ITERATION   4:   1.8708e-02 (   4.9 sec   0/  3 done)
     CP-SCF ITERATION   5:   3.0313e-03 (   5.0 sec   0/  3 done)
     CP-SCF ITERATION   6:   4.4476e-04 (   5.0 sec   3/  3 done)
                    *** THE CP-SCF HAS CONVERGED ***

Forming final perturbed densities           ... done
Transforming perturbed density to AO basis  ... done

 Raw HFC matrix (all values in MHz): 
 -----------------------------------
              -153.4120             117.3594              39.7065
               117.8625            -299.7557             -68.9192
                40.6319             -70.2050            -108.6478

 A(FC)        -175.2733            -175.2733            -175.2733
 A(SD)          97.6028              93.8261            -191.4288
 A(ORB+DIA)     -7.3668              -7.1556             -21.4730    A(PC) = -11.9985
 A(ORB)         -7.3673              -7.1553             -21.4728    A(PC) = -11.9984
 A(DIA)          0.0004              -0.0004              -0.0002    A(PC) =  -0.0000
             ----------           ----------           ----------
 A(Tot)        -85.0374             -88.6029            -388.1752    A(iso)= -187.2718
 Orientation: 
  X          -0.4865711            0.7379195            0.4676788
  Y           0.0142530            0.5419551           -0.8402866
  Z          -0.8735247           -0.4021933           -0.2742172

Notes:  (1) The A matrix conforms to the "SAI" spin Hamiltonian convention.
        (2) Tensor is right-handed.

 Raw EFG matrix (all values in a.u.**-3):
 -----------------------------------
             0.0547      -0.1786      -0.0421
            -0.1786       0.1226      -0.0370
            -0.0421      -0.0370      -0.1773

 V(El)       0.1354      -0.4259       0.2905
 V(Nuc)     -0.2005       0.2206      -0.0201
         ----------   ----------   ----------
 V(Tot)     -0.0651      -0.2053       0.2704 
 Orientation: 
  X       0.6905156    0.3422930    0.6371999
  Y       0.5687087    0.2874172   -0.7706892
  Z      -0.4469437    0.8945540    0.0038011

Note: Tensor is right-handed


 Quadrupole tensor eigenvalues (in MHz;Q=-0.0430 I=  3.5)
  e**2qQ            =    -2.732132 MHz 
  e**2qQ/(4I*(2I-1))=    -0.032525 MHz 
  eta               =     0.518541
  NOTE: the diagonal representation of the SH term I*Q*I = e**2qQ/(4I(2I-1))*[-(1-eta),-(1+eta),2]

 RHO(0)=   8115.201168253 a.u.**-3


--------------------------------------------------------------------------------
----------------------------------------------------------------------------
                           ORCA EULER ANGLE PROGRAM
----------------------------------------------------------------------------

Only g-tensor available        -->  using g-tensor as reference tensor

Reference tensor               ...  g

g-tensor ordering              ...  |g_min> --> |gx>
                                    |g_mid> --> |gy>
                                    |g_max> --> |gz>

A- and EFG-tensor ordering     ...  the axes |Ax>, |Qx>, |Ay>, etc. are assigned
                                    such that the Euler rotation is minimal. You
                                    can find the respective eigenvalues as Ax,
                                    EFGx, Ay, etc. in the tables below.
                                    The relation of |Ax>, |Ay>,  etc. to Amin, Amid, etc.
                                    (as printed in the ORCA EPR/NMR CALCULATION Output)
                                    is obtained in the detailed printout.

Euler rotation around          ...  z - y - z
   First rotation              -->  by alpha around z
   Second rotation             -->  by beta around y'
   Third rotation              -->  by gamma around z''
   Positive / Negative angle   -->  clockwise / counterclockwise rotation

Plot EFG-tensors                    (-)
Plot HFC-tensors                    (-)
Detailed Printout                   (-)

-------------------------------------------------------------------------
          Euler rotation of hyperfine tensor to g-tensor
-------------------------------------------------------------------------

-------------------------------------------------------------------
 Atom  |   Alpha    Beta    Gamma   |   Ax       Ay       Az 
       |          [degrees]         |           [MHz]         
-------------------------------------------------------------------
 25H      -48.8     31.5     66.3      -0.13     0.24    -0.12
 26H      -91.7     20.9    107.2      -0.08     0.14    -0.08
 27H     -121.5     38.7    150.1      -0.07     0.13    -0.07
 28H      -81.1     33.8     90.1      -0.07     0.13    -0.07
 29H       78.3     45.3    -70.7      -0.08    -0.08     0.14
 30H      -90.2     40.6    116.5      -0.13     0.24    -0.12
 34H      -65.6     29.8     62.9      -0.14     0.28    -0.14
 35H      -64.9     24.2     56.6      -0.07     0.20    -0.08
 36H     -115.0     38.3    106.5      -0.08     0.14    -0.08
 37H     -104.2     37.0    105.8      -0.10     0.13    -0.10
 38H      130.5     41.6   -101.5      -0.08    -0.08     0.20
 39H     -108.8     48.1    115.8      -0.14     0.28    -0.15
  0V     -102.4     38.5     89.5    -388.18   -85.04   -88.60
-------------------------------------------------------------------


-------------------------------------------------------------------------------
    Euler rotation of Electric Field Gradient (EFG) tensor to g-tensor
-------------------------------------------------------------------------------

-------------------------------------------------------------------
 Atom  |   Alpha    Beta    Gamma  |   EFGx     EFGy     EFGz
       |          [degrees]        |         [a.u.**-3]       
-------------------------------------------------------------------
 25H       31.7     31.8      8.0      0.29    -0.15    -0.14
 26H      156.8     48.1   -151.8     -0.14     0.29    -0.15
 27H     -119.1     33.5     93.2      0.28    -0.15    -0.14
 28H     -135.3     33.4     93.2     -0.15     0.28    -0.14
 29H       -8.4     10.3    -31.2     -0.14    -0.15     0.29
 30H       46.1     31.2     -4.2      0.29    -0.14    -0.15
 34H       -9.6     12.6     35.0      0.28    -0.14    -0.14
 35H       36.6     38.3    -30.8     -0.15     0.29    -0.14
 36H      -62.6     36.2     96.7      0.28    -0.14    -0.14
 37H     -134.9     36.2     96.4      0.28    -0.14    -0.14
 38H     -119.2      7.9    155.5     -0.15    -0.14     0.29
 39H       60.2     27.1    -38.5      0.28    -0.14    -0.14
  0V     -122.6     42.4     91.1      0.27    -0.21    -0.07
-------------------------------------------------------------------


Maximum memory used throughout the entire EPRNMR-calculation: 308.1 MB

Timings for individual modules:

Sum of individual times         ...     3722.097 sec (=  62.035 min)
GTO integral calculation        ...        1.539 sec (=   0.026 min)   0.0 %
Spin-Orbit-Coupling Matrices    ...       10.717 sec (=   0.179 min)   0.3 %
SCF iterations                  ...      198.918 sec (=   3.315 min)   5.3 %
EPR/NMR calculation             ...     3510.924 sec (=  58.515 min)  94.3 %
                             ****ORCA TERMINATED NORMALLY****
TOTAL RUN TIME: 0 days 1 hours 2 minutes 3 seconds 516 msec
