
                                 *****************
                                 * O   R   C   A *
                                 *****************

                                            #,                                       
                                            ###                                      
                                            ####                                     
                                            #####                                    
                                            ######                                   
                                           ########,                                 
                                     ,,################,,,,,                         
                               ,,#################################,,                 
                          ,,##########################################,,             
                       ,#########################################, ''#####,          
                    ,#############################################,,   '####,        
                  ,##################################################,,,,####,       
                ,###########''''           ''''###############################       
              ,#####''   ,,,,##########,,,,          '''####'''          '####       
            ,##' ,,,,###########################,,,                        '##       
           ' ,,###''''                  '''############,,,                           
         ,,##''                                '''############,,,,        ,,,,,,###''
      ,#''                                            '''#######################'''  
     '                                                          ''''####''''         
             ,#######,   #######,   ,#######,      ##                                
            ,#'     '#,  ##    ##  ,#'     '#,    #''#        ######   ,####,        
            ##       ##  ##   ,#'  ##            #'  '#       #        #'  '#        
            ##       ##  #######   ##           ,######,      #####,   #    #        
            '#,     ,#'  ##    ##  '#,     ,#' ,#      #,         ##   #,  ,#        
             '#######'   ##     ##  '#######'  #'      '#     #####' # '####'        



                  #######################################################
                  #                        -***-                        #
                  #          Department of theory and spectroscopy      #
                  #    Directorship and core code : Frank Neese         #
                  #        Max Planck Institute fuer Kohlenforschung    #
                  #                Kaiser Wilhelm Platz 1               #
                  #                 D-45470 Muelheim/Ruhr               #
                  #                      Germany                        #
                  #                                                     #
                  #                  All rights reserved                #
                  #                        -***-                        #
                  #######################################################


                         Program Version 5.0.4 -  RELEASE  -


 With contributions from (in alphabetic order):
   Daniel Aravena         : Magnetic Suceptibility
   Michael Atanasov       : Ab Initio Ligand Field Theory (pilot matlab implementation)
   Alexander A. Auer      : GIAO ZORA, VPT2 properties, NMR spectrum
   Ute Becker             : Parallelization
   Giovanni Bistoni       : ED, misc. LED, open-shell LED, HFLD
   Martin Brehm           : Molecular dynamics
   Dmytro Bykov           : SCF Hessian
   Vijay G. Chilkuri      : MRCI spin determinant printing, contributions to CSF-ICE
   Dipayan Datta          : RHF DLPNO-CCSD density
   Achintya Kumar Dutta   : EOM-CC, STEOM-CC
   Dmitry Ganyushin       : Spin-Orbit,Spin-Spin,Magnetic field MRCI
   Miquel Garcia          : C-PCM and meta-GGA Hessian, CC/C-PCM, Gaussian charge scheme
   Yang Guo               : DLPNO-NEVPT2, F12-NEVPT2, CIM, IAO-localization
   Andreas Hansen         : Spin unrestricted coupled pair/coupled cluster methods
   Benjamin Helmich-Paris : MC-RPA, TRAH-SCF, COSX integrals
   Lee Huntington         : MR-EOM, pCC
   Robert Izsak           : Overlap fitted RIJCOSX, COSX-SCS-MP3, EOM
   Marcus Kettner         : VPT2
   Christian Kollmar      : KDIIS, OOCD, Brueckner-CCSD(T), CCSD density, CASPT2, CASPT2-K
   Simone Kossmann        : Meta GGA functionals, TD-DFT gradient, OOMP2, MP2 Hessian
   Martin Krupicka        : Initial AUTO-CI
   Lucas Lang             : DCDCAS
   Marvin Lechner         : AUTO-CI (C++ implementation), FIC-MRCC
   Dagmar Lenk            : GEPOL surface, SMD
   Dimitrios Liakos       : Extrapolation schemes; Compound Job, initial MDCI parallelization
   Dimitrios Manganas     : Further ROCIS development; embedding schemes
   Dimitrios Pantazis     : SARC Basis sets
   Anastasios Papadopoulos: AUTO-CI, single reference methods and gradients
   Taras Petrenko         : DFT Hessian,TD-DFT gradient, ASA, ECA, R-Raman, ABS, FL, XAS/XES, NRVS
   Peter Pinski           : DLPNO-MP2, DLPNO-MP2 Gradient
   Christoph Reimann      : Effective Core Potentials
   Marius Retegan         : Local ZFS, SOC
   Christoph Riplinger    : Optimizer, TS searches, QM/MM, DLPNO-CCSD(T), (RO)-DLPNO pert. Triples
   Tobias Risthaus        : Range-separated hybrids, TD-DFT gradient, RPA, STAB
   Michael Roemelt        : Original ROCIS implementation
   Masaaki Saitow         : Open-shell DLPNO-CCSD energy and density
   Barbara Sandhoefer     : DKH picture change effects
   Avijit Sen             : IP-ROCIS
   Kantharuban Sivalingam : CASSCF convergence, NEVPT2, FIC-MRCI
   Bernardo de Souza      : ESD, SOC TD-DFT
   Georgi Stoychev        : AutoAux, RI-MP2 NMR, DLPNO-MP2 response
   Willem Van den Heuvel  : Paramagnetic NMR
   Boris Wezisla          : Elementary symmetry handling
   Frank Wennmohs         : Technical directorship


 We gratefully acknowledge several colleagues who have allowed us to
 interface, adapt or use parts of their codes:
   Stefan Grimme, W. Hujo, H. Kruse, P. Pracht,  : VdW corrections, initial TS optimization,
                  C. Bannwarth, S. Ehlert          DFT functionals, gCP, sTDA/sTD-DF
   Ed Valeev, F. Pavosevic, A. Kumar             : LibInt (2-el integral package), F12 methods
   Garnet Chan, S. Sharma, J. Yang, R. Olivares  : DMRG
   Ulf Ekstrom                                   : XCFun DFT Library
   Mihaly Kallay                                 : mrcc  (arbitrary order and MRCC methods)
   Jiri Pittner, Ondrej Demel                    : Mk-CCSD
   Frank Weinhold                                : gennbo (NPA and NBO analysis)
   Christopher J. Cramer and Donald G. Truhlar   : smd solvation model
   Lars Goerigk                                  : TD-DFT with DH, B97 family of functionals
   V. Asgeirsson, H. Jonsson                     : NEB implementation
   FAccTs GmbH                                   : IRC, NEB, NEB-TS, DLPNO-Multilevel, CI-OPT
                                                   MM, QMMM, 2- and 3-layer-ONIOM, Crystal-QMMM,
                                                   LR-CPCM, SF, NACMEs, symmetry and pop. for TD-DFT,
                                                   nearIR, NL-DFT gradient (VV10), updates on ESD,
                                                   ML-optimized integration grids
   S Lehtola, MJT Oliveira, MAL Marques          : LibXC Library
   Liviu Ungur et al                             : ANISO software


 Your calculation uses the libint2 library for the computation of 2-el integrals
 For citations please refer to: http://libint.valeyev.net

 Your ORCA version has been built with support for libXC version: 5.1.0
 For citations please refer to: https://tddft.org/programs/libxc/

 This ORCA versions uses:
   CBLAS   interface :  Fast vector & matrix operations
   LAPACKE interface :  Fast linear algebra routines
   SCALAPACK package :  Parallel linear algebra routines
   Shared memory     :  Shared parallel matrices
   BLAS/LAPACK       :  OpenBLAS 0.3.15  USE64BITINT DYNAMIC_ARCH NO_AFFINITY Prescott SINGLE_THREADED
        Core in use  :  Prescott
   Copyright (c) 2011-2014, The OpenBLAS Project


================================================================================

----- Orbital basis set information -----
Your calculation utilizes the basis: TZVP 

The basis set includes element-specific modifications.

Your calculation utilizes the basis: CP(PPP) 

----- AuxJ basis set information -----
Your calculation utilizes the auxiliary basis: def2/J
   F. Weigend, Phys. Chem. Chem. Phys. 8, 1057 (2006).

================================================================================
                                        WARNINGS
                       Please study these warnings very carefully!
================================================================================


WARNING: your system is open-shell and RHF/RKS was chosen
  ===> : WILL SWITCH to UHF/UKS


INFO   : the flag for use of the SHARK integral package has been found!

================================================================================
                                       INPUT FILE
================================================================================
NAME = input_109.inp
|  1> ! nofrozencore ReducedPop printbasis
|  2> ! B3LYP TZVP
|  3> 
|  4> %basis
|  5> newgto V "CP(PPP)" end
|  6> end
|  7> 
|  8> %pal
|  9> nprocs 8
| 10> end
| 11> 
| 12> % sym SymThresh 1e-2 end
| 13> * xyz -2 2 
| 14> V -0.2640501296892104 -1.047391189294248 -0.2687300882091393
| 15> S 1.8258644372365156 -0.7386970672392239 -1.5555481714910506
| 16> S 1.196402063616218 -1.1275330713593368 1.7281990007122547
| 17> S -1.3380177095023826 0.33742697370177205 -2.0179762179509106
| 18> S -1.9145932266797674 0.029232259944019727 1.2150650941149292
| 19> O -0.741809902268416 -2.5448823741142608 -0.5000861746050232
| 20> C -0.021002068458962565 -0.9227861801906109 2.9808359340620654
| 21> C -1.2668852334221248 -0.4557636517497217 2.7749810579987253
| 22> C 1.2159298520661128 0.02220331914910095 -3.018719103662718
| 23> C -0.04540325279252339 0.4538142377154751 -3.20118613229793
| 24> S 0.4221184090212816 -1.2843930558853136 4.684024499828638
| 25> S -2.2962760097490795 -0.24741481723261274 4.230206000316013
| 26> S -0.40045996125242006 1.2498559617528917 -4.771514555578602
| 27> S 2.3590589023972997 0.29988663572139873 -4.376639728897246
| 28> C -1.108460293584848 -0.792730202470144 5.4197826310227075
| 29> C 1.2333588416356422 1.15466603392827 -5.438603350788926
| 30> C -1.3544779378622562 -0.8391433947581299 6.764506667768849
| 31> C 1.5860776624733688 1.6778654023169848 -6.651691174508831
| 32> S -0.1482781428508375 -1.4496801003595894 7.9256633200637605
| 33> S -2.9164975283511865 -0.32490044390880296 7.451086978972549
| 34> S 3.248772276284014 1.5593873065826716 -7.281316516394973
| 35> S 0.41693161440729254 2.550362674530177 -7.675884674533614
| 36> C 1.2482472133155114 4.198274276442 -7.662612862288193
| 37> C 3.631559306424311 3.364093872333821 -7.336518391436159
| 38> C 2.672363430024749 4.163133167524973 -8.22109824070275
| 39> H 1.2008467997387842 4.617308255073105 -6.585668799091621
| 40> H 0.5026743801641874 4.96052633382038 -8.41426884593439
| 41> H 3.092165269588182 5.354809790613791 -8.238689489003779
| 42> H 2.679571514726703 3.9400287141818358 -8.847008516483065
| 43> H 4.841816561589043 3.4388294897652223 -7.825328156189562
| 44> H 3.6697121723740853 3.759576370887898 -6.246970744049299
| 45> C -3.452708134701694 -1.9468190169526105 8.163912187574743
| 46> C -1.0994909401815784 -2.905894596070268 8.560836225623595
| 47> C -2.4571101389693633 -2.53837415781013 9.163927687961515
| 48> H -1.218012375675711 -3.618509950789936 7.739597051490279
| 49> H -0.45668948637095536 -3.364010098585346 9.321917094748754
| 50> H -2.3096648385222562 -1.8385013282659421 9.98389042708499
| 51> H -2.9015218501876947 -3.45243539401758 9.589149887541806
| 52> H -4.412082694752528 -1.745736698080487 8.65530881831846
| 53> H -3.631205951702836 -2.638490127618361 7.3356205805749894
| 54> * 
| 55> 
| 56> % eprnmr
| 57> gtensor true
| 58> Nuclei = all H {aiso,adip,aorb,fgrad,rho}
| 59> Nuclei = all V {aiso,adip,aorb,fgrad,rho}
| 60> end
| 61> 
| 62>                          ****END OF INPUT****
================================================================================

------------------------------------------------------------------------------
                            SYMMETRY HANDLING SETUP
------------------------------------------------------------------------------

------------------
SYMMETRY DETECTION
------------------
The point group will now be determined using a tolerance of 1.0000e-02.
Splitting atom subsets according to nuclear charge, mass and basis set.
Splitting atom subsets according to distance from the molecule's center.
Identifying relative distance patterns of the atoms.
Splitting atom subsets according to atoms' relative distance patterns.
Bring atoms of each subset into input order.
The molecule is neither linear nor planar.
There is at least one atom subset not centered around the molecule's center.
The molecule does not have a center of inversion.
Analyzing the first atom subset for its symmetry.
The subset is an off-center atom pair.
Testing point group C2v.
Test failed.
Testing point group C2.
Test failed.
Testing point group Cs.
Test failed.
Testing point group Cs.
Test failed.
No testing is needed for point group C1.
This point group has been found:    C1
Largest non-degenerate subgroup:    C1


Mass-centered symmetry-perfected Cartesians (point group C1):

Atom          Symmetry-perfected Cartesians (x, y, z; au)
  0      -0.498168497276   -1.974571639313   -0.502383023781
  1       3.451197677507   -1.391224289478   -2.934116785362
  2       2.261686179756   -2.126017848273    3.271266063141
  3      -2.527673099833    0.642355434029   -3.807979149815
  4      -3.617242922822    0.059951829105    2.301583509643
  5      -1.401003625255   -4.804419866584   -0.939582666485
  6      -0.038874224170   -1.739102297193    5.638406812407
  7      -2.393252200813   -0.856557620068    5.249397473315
  8       2.298588351928    0.046669055991   -5.699109134280
  9      -0.084985779904    0.862295488491   -6.043921846871
 10       0.798502122600   -2.422440260399    8.856966756132
 11      -4.338518852856   -0.462835382509    7.999374077546
 12      -0.755945720904    2.366596338097   -9.011412507184
 13       4.458789192783    0.571414476271   -8.265207227577
 14      -2.093872451738   -1.493332117222   10.247348124894
 15       2.331524369005    2.186713443800  -10.272027637139
 16      -2.558778423535   -1.581040339647   12.788508280046
 17       2.998066342668    3.175416963496  -12.564431400364
 18      -0.279391148171   -2.734787507940   14.982776351464
 19      -5.510567665379   -0.609261996242   14.085957037163
 20       6.140103807116    2.951525809689  -13.754250863506
 21       0.788700501267    4.824197860572  -14.499876623553
 22       2.359659314060    7.938299481097  -14.474796533109
 23       6.863466461698    6.361926971048  -13.858567289412
 24       5.050848946517    7.871892409201  -15.530180948112
 25       2.270085513765    8.730158941517  -12.439667192115
 26       0.950730846512    9.378747114560  -15.895220489123
 27       5.844159453808   10.123834867035  -15.563423589754
 28       5.064470252553    7.450286093124  -16.712979953744
 29       9.150521225551    6.503156820443  -14.782283876383
 30       6.935564929568    7.109280584074  -11.799620625993
 31      -6.523858861485   -3.674243910815   15.433001462777
 32      -2.076922830207   -5.486634097080   16.183079190659
 33      -4.642451310070   -4.792121120149   17.322756888184
 34      -2.300895884291   -6.833281956327   14.631162061099
 35      -0.862204124019   -6.352346934537   17.621313599072
 36      -4.363820072491   -3.469553143738   18.872261905147
 37      -5.482267734980   -6.519446526215   18.126310391454
 38      -8.336814039832   -3.294253397773   16.361606518014
 39      -6.861170851120   -4.981312884719   13.867757166521


------------------
SYMMETRY REDUCTION
------------------
ORCA supports only abelian point groups.
It is now checked, if the determined point group is supported:
Point Group ( C1    ) is          ... supported

The point group is C1 - hence turning off symmetry
If this is a round-off problem, please increase the symmetry
        detection tolerance (%method SymThresh)

Storing the symmetry object:
Symmetry file                     ... input_109.sym.tmp
Writing symmetry information      ... done

                       ****************************
                       * Single Point Calculation *
                       ****************************

---------------------------------
CARTESIAN COORDINATES (ANGSTROEM)
---------------------------------
  V     -0.263619   -1.044898   -0.265850
  S      1.826295   -0.736204   -1.552668
  S      1.196833   -1.125040    1.731079
  S     -1.337587    0.339920   -2.015096
  S     -1.914163    0.031725    1.217946
  O     -0.741379   -2.542389   -0.497206
  C     -0.020571   -0.920293    2.983716
  C     -1.266455   -0.453271    2.777862
  C      1.216361    0.024696   -3.015839
  C     -0.044973    0.456307   -3.198306
  S      0.422549   -1.281900    4.686905
  S     -2.295845   -0.244922    4.233086
  S     -0.400029    1.252349   -4.768634
  S      2.359490    0.302380   -4.373759
  C     -1.108030   -0.790237    5.422663
  C      1.233790    1.157159   -5.435723
  C     -1.354047   -0.836651    6.767387
  C      1.586508    1.680358   -6.648811
  S     -0.147847   -1.447187    7.928544
  S     -2.916067   -0.322408    7.453967
  S      3.249203    1.561880   -7.278436
  S      0.417362    2.552856   -7.673004
  C      1.248678    4.200767   -7.659732
  C      3.631990    3.366587   -7.333638
  C      2.672794    4.165626   -8.218218
  H      1.201278    4.619801   -6.582788
  H      0.503105    4.963019   -8.411388
  H      3.092596    5.357303   -8.235809
  H      2.680002    3.942522   -8.844128
  H      4.842247    3.441322   -7.822448
  H      3.670143    3.762069   -6.244090
  C     -3.452277   -1.944326    8.166793
  C     -1.099060   -2.903402    8.563717
  C     -2.456679   -2.535881    9.166808
  H     -1.217582   -3.616017    7.742477
  H     -0.456259   -3.361517    9.324798
  H     -2.309234   -1.836008    9.986771
  H     -2.901091   -3.449943    9.592030
  H     -4.411652   -1.743244    8.658189
  H     -3.630775   -2.635997    7.338501

----------------------------
CARTESIAN COORDINATES (A.U.)
----------------------------
  NO LB      ZA    FRAG     MASS         X           Y           Z
   0 V    23.0000    0    50.940   -0.498168   -1.974572   -0.502383
   1 S    16.0000    0    32.060    3.451198   -1.391224   -2.934117
   2 S    16.0000    0    32.060    2.261686   -2.126018    3.271266
   3 S    16.0000    0    32.060   -2.527673    0.642355   -3.807979
   4 S    16.0000    0    32.060   -3.617243    0.059952    2.301584
   5 O     8.0000    0    15.999   -1.401004   -4.804420   -0.939583
   6 C     6.0000    0    12.011   -0.038874   -1.739102    5.638407
   7 C     6.0000    0    12.011   -2.393252   -0.856558    5.249397
   8 C     6.0000    0    12.011    2.298588    0.046669   -5.699109
   9 C     6.0000    0    12.011   -0.084986    0.862295   -6.043922
  10 S    16.0000    0    32.060    0.798502   -2.422440    8.856967
  11 S    16.0000    0    32.060   -4.338519   -0.462835    7.999374
  12 S    16.0000    0    32.060   -0.755946    2.366596   -9.011413
  13 S    16.0000    0    32.060    4.458789    0.571414   -8.265207
  14 C     6.0000    0    12.011   -2.093872   -1.493332   10.247348
  15 C     6.0000    0    12.011    2.331524    2.186713  -10.272028
  16 C     6.0000    0    12.011   -2.558778   -1.581040   12.788508
  17 C     6.0000    0    12.011    2.998066    3.175417  -12.564431
  18 S    16.0000    0    32.060   -0.279391   -2.734788   14.982776
  19 S    16.0000    0    32.060   -5.510568   -0.609262   14.085957
  20 S    16.0000    0    32.060    6.140104    2.951526  -13.754251
  21 S    16.0000    0    32.060    0.788701    4.824198  -14.499877
  22 C     6.0000    0    12.011    2.359659    7.938299  -14.474797
  23 C     6.0000    0    12.011    6.863466    6.361927  -13.858567
  24 C     6.0000    0    12.011    5.050849    7.871892  -15.530181
  25 H     1.0000    0     1.008    2.270086    8.730159  -12.439667
  26 H     1.0000    0     1.008    0.950731    9.378747  -15.895220
  27 H     1.0000    0     1.008    5.844159   10.123835  -15.563424
  28 H     1.0000    0     1.008    5.064470    7.450286  -16.712980
  29 H     1.0000    0     1.008    9.150521    6.503157  -14.782284
  30 H     1.0000    0     1.008    6.935565    7.109281  -11.799621
  31 C     6.0000    0    12.011   -6.523859   -3.674244   15.433001
  32 C     6.0000    0    12.011   -2.076923   -5.486634   16.183079
  33 C     6.0000    0    12.011   -4.642451   -4.792121   17.322757
  34 H     1.0000    0     1.008   -2.300896   -6.833282   14.631162
  35 H     1.0000    0     1.008   -0.862204   -6.352347   17.621314
  36 H     1.0000    0     1.008   -4.363820   -3.469553   18.872262
  37 H     1.0000    0     1.008   -5.482268   -6.519447   18.126310
  38 H     1.0000    0     1.008   -8.336814   -3.294253   16.361607
  39 H     1.0000    0     1.008   -6.861171   -4.981313   13.867757

--------------------------------
INTERNAL COORDINATES (ANGSTROEM)
--------------------------------
 V      0   0   0     0.000000000000     0.00000000     0.00000000
 S      1   0   0     2.473648264710     0.00000000     0.00000000
 S      1   2   0     2.475291723489    85.71218302     0.00000000
 S      1   2   3     2.476083546545    85.93725682   148.62456429
 S      1   2   3     2.466791176724   145.46230152    75.87790057
 O      1   2   3     1.588791958571   107.21319747   255.26634532
 C      3   1   2     1.758719249064    99.34722684   165.57975278
 C      7   3   1     1.346369612257   124.89194640   342.87600374
 C      2   1   3     1.758368213130   101.17543233   202.40108172
 C      9   2   1     1.345564343678   125.22627865     8.19737700
 S      7   3   1     1.796654274108   118.75308122   165.81463298
 S      8   7   3     1.794640420801   116.55602535   183.45585866
 S     10   9   2     1.796017552697   116.49075709   177.93618407
 S      9   2   1     1.796608046974   118.36663824   186.34082900
 C     12   8   7     1.767305181701    97.14979572     0.25816112
 C     13  10   9     1.767323531141    97.08810589   358.18588727
 C     15  12   8     1.367830983973   123.45737410   179.54062707
 C     16  13  10     1.367380785924   123.55402008   182.70762490
 S     17  15  12     1.782121708958   122.03528128   177.81477092
 S     17  15  12     1.782061597505   121.77765296   359.19987784
 S     18  16  13     1.781858161894   121.92044851   179.88679583
 S     18  16  13     1.782449521647   121.86098938     1.33482213
 C     22  18  16     1.845772037307    97.90148024   116.76478951
 C     21  18  16     1.845681160417    97.99457800   243.07379653
 C     24  21  18     1.530033344176   113.44791385   301.20978105
 H     23  22  18     1.156565946978   108.16214721   293.39227812
 H     23  22  18     1.304566505113   105.07694794   178.75490405
 H     25  24  21     1.263580709941   106.99494479   184.04583159
 H     25  24  21     0.664523308029   111.24867914   301.13211125
 H     24  21  18     1.307380213369   105.01469278   181.62977352
 H     24  21  18     1.159731056655   108.18980765    67.01561787
 C     20  17  15     1.851016328930    98.59406223   117.00998464
 C     19  17  15     1.851704907182    98.35062037   243.11568747
 C     32  20  17     1.530092760193   113.70073138    57.22154358
 H     33  19  17     1.093755802538   108.08851306    65.87257907
 H     33  19  17     1.096497885093   105.39733034   181.39816362
 H     34  32  20     1.088072142695   109.39122264    58.90163976
 H     34  32  20     1.101736643496   108.09160920   175.43633113
 H     32  20  17     1.096496372152   105.38788377   178.16702504
 H     32  20  17     1.093772088796   108.04424697   293.67311202

---------------------------
INTERNAL COORDINATES (A.U.)
---------------------------
 V      0   0   0     0.000000000000     0.00000000     0.00000000
 S      1   0   0     4.674517771951     0.00000000     0.00000000
 S      1   2   0     4.677623458956    85.71218302     0.00000000
 S      1   2   3     4.679119787678    85.93725682   148.62456429
 S      1   2   3     4.661559753581   145.46230152    75.87790057
 O      1   2   3     3.002381685476   107.21319747   255.26634532
 C      3   1   2     3.323497727187    99.34722684   165.57975278
 C      7   3   1     2.544269842199   124.89194640   342.87600374
 C      2   1   3     3.322834365408   101.17543233   202.40108172
 C      9   2   1     2.542748105120   125.22627865     8.19737700
 S      7   3   1     3.395184535403   118.75308122   165.81463298
 S      8   7   3     3.391378904180   116.55602535   183.45585866
 S     10   9   2     3.393981306312   116.49075709   177.93618407
 S      9   2   1     3.395097178780   118.36663824   186.34082900
 C     12   8   7     3.339722788475    97.14979572     0.25816112
 C     13  10   9     3.339757463891    97.08810589   358.18588727
 C     15  12   8     2.584825957201   123.45737410   179.54062707
 C     16  13  10     2.583975206182   123.55402008   182.70762490
 S     17  15  12     3.367721967247   122.03528128   177.81477092
 S     17  15  12     3.367608373063   121.77765296   359.19987784
 S     18  16  13     3.367223935472   121.92044851   179.88679583
 S     18  16  13     3.368341443453   121.86098938     1.33482213
 C     22  18  16     3.488003656160    97.90148024   116.76478951
 C     21  18  16     3.487831923725    97.99457800   243.07379653
 C     24  21  18     2.891343996260   113.44791385   301.20978105
 H     23  22  18     2.185592895608   108.16214721   293.39227812
 H     23  22  18     2.465273418150   105.07694794   178.75490405
 H     25  24  21     2.387821489894   106.99494479   184.04583159
 H     25  24  21     1.255767061782   111.24867914   301.13211125
 H     24  21  18     2.470590556176   105.01469278   181.62977352
 H     24  21  18     2.191574086080   108.18980765    67.01561787
 C     20  17  15     3.497913931094    98.59406223   117.00998464
 C     19  17  15     3.499215155412    98.35062037   243.11568747
 C     32  20  17     2.891456276260   113.70073138    57.22154358
 H     33  19  17     2.066898924184   108.08851306    65.87257907
 H     33  19  17     2.072080709250   105.39733034   181.39816362
 H     34  32  20     2.056158363643   109.39122264    58.90163976
 H     34  32  20     2.081980527912   108.09160920   175.43633113
 H     32  20  17     2.072077850205   105.38788377   178.16702504
 H     32  20  17     2.066929700752   108.04424697   293.67311202

---------------------
BASIS SET INFORMATION
---------------------
There are 5 groups of distinct atoms

 Group   1 Type V   : 17s11p5d1f contracted to 17s7p3d1f pattern {11111111111111111/3311111/311/1}
 Group   2 Type S   : 14s9p1d contracted to 5s4p1d pattern {73211/6111/1}
 Group   3 Type O   : 11s6p1d contracted to 5s3p1d pattern {62111/411/1}
 Group   4 Type C   : 11s6p1d contracted to 5s3p1d pattern {62111/411/1}
 Group   5 Type H   : 5s1p contracted to 3s1p pattern {311/1}

Atom   0V    basis set group =>   1
Atom   1S    basis set group =>   2
Atom   2S    basis set group =>   2
Atom   3S    basis set group =>   2
Atom   4S    basis set group =>   2
Atom   5O    basis set group =>   3
Atom   6C    basis set group =>   4
Atom   7C    basis set group =>   4
Atom   8C    basis set group =>   4
Atom   9C    basis set group =>   4
Atom  10S    basis set group =>   2
Atom  11S    basis set group =>   2
Atom  12S    basis set group =>   2
Atom  13S    basis set group =>   2
Atom  14C    basis set group =>   4
Atom  15C    basis set group =>   4
Atom  16C    basis set group =>   4
Atom  17C    basis set group =>   4
Atom  18S    basis set group =>   2
Atom  19S    basis set group =>   2
Atom  20S    basis set group =>   2
Atom  21S    basis set group =>   2
Atom  22C    basis set group =>   4
Atom  23C    basis set group =>   4
Atom  24C    basis set group =>   4
Atom  25H    basis set group =>   5
Atom  26H    basis set group =>   5
Atom  27H    basis set group =>   5
Atom  28H    basis set group =>   5
Atom  29H    basis set group =>   5
Atom  30H    basis set group =>   5
Atom  31C    basis set group =>   4
Atom  32C    basis set group =>   4
Atom  33C    basis set group =>   4
Atom  34H    basis set group =>   5
Atom  35H    basis set group =>   5
Atom  36H    basis set group =>   5
Atom  37H    basis set group =>   5
Atom  38H    basis set group =>   5
Atom  39H    basis set group =>   5

-------------------------
BASIS SET IN INPUT FORMAT
-------------------------

 # Basis set for element : H 
 NewGTO H 
 S 3 
   1      34.0613410000      0.0254393168
   2       5.1235746000      0.1900859340
   3       1.1646626000      0.8524411390
 S 1 
   1       0.3272304100      1.0000000000
 S 1 
   1       0.1030724100      1.0000000000
 P 1 
   1       0.8000000000      1.0000000000
  end;

 # Basis set for element : C 
 NewGTO C 
 S 6 
   1   13575.3496820000      0.0006064601
   2    2035.2333680000      0.0046978985
   3     463.2256235900      0.0243324735
   4     131.2001959800      0.0973999560
   5      42.8530158900      0.3019558443
   6      15.5841857700      0.6623361013
 S 2 
   1       6.2067138500      0.6559530795
   2       2.5764896500      0.3758563390
 S 1 
   1       0.5769633900      1.0000000000
 S 1 
   1       0.2297283100      1.0000000000
 S 1 
   1       0.0951644400      1.0000000000
 P 4 
   1      34.6972322400      0.0113272290
   2       7.9582622800      0.0761696612
   3       2.3780826900      0.3019225154
   4       0.8143320800      0.7278502776
 P 1 
   1       0.2888754700      1.0000000000
 P 1 
   1       0.1005682400      1.0000000000
 D 1 
   1       0.8000000000      1.0000000000
  end;

 # Basis set for element : O 
 NewGTO O 
 S 6 
   1   27032.3826310000      0.0005722654
   2    4052.3871392000      0.0044353333
   3     922.3272271000      0.0230201034
   4     261.2407098900      0.0928224938
   5      85.3546413500      0.2937849971
   6      31.0350352400      0.6740160462
 S 2 
   1      12.2608607300      0.6383993750
   2       4.9987076000      0.3953458663
 S 1 
   1       1.1703108200      1.0000000000
 S 1 
   1       0.4647474100      1.0000000000
 S 1 
   1       0.1850453600      1.0000000000
 P 4 
   1      63.2749548000      0.0120183316
   2      14.6270493800      0.0830054304
   3       4.4501223500      0.3199174388
   4       1.5275799600      0.7071554258
 P 1 
   1       0.5293511800      1.0000000000
 P 1 
   1       0.1747842100      1.0000000000
 D 1 
   1       1.2000000000      1.0000000000
  end;

 # Basis set for element : S 
 NewGTO S 
 S 7 
   1   60700.9281040000      0.0005238013
   2    9102.6106854000      0.0040506304
   3    2071.4166009000      0.0208270003
   4     586.0247682100      0.0814968475
   5     190.5539502100      0.2374911358
   6      67.6303842600      0.4472617145
   7      25.1273069100      0.3489191913
 S 3 
   1     112.5746301000      0.1004556993
   2      34.7955542200      0.4339117282
   3       6.5115556200     -1.2084330582
 S 2 
   1       3.2399032300      0.6749812922
   2       1.5477160900      0.3470879597
 S 1 
   1       0.4054103000      1.0000000000
 S 1 
   1       0.1455065100      1.0000000000
 P 6 
   1     564.3671602700      0.0025564845
   2     133.4262437900      0.0202874255
   3      42.4682711900      0.0927670112
   4      15.6165275800      0.2650208365
   5       6.1093988500      0.4486298663
   6       2.4404160200      0.3596369916
 P 1 
   1       0.8388220100      1.0000000000
 P 1 
   1       0.3128874700      1.0000000000
 P 1 
   1       0.1077010900      1.0000000000
 D 1 
   1       0.5500000000      1.0000000000
  end;

 # Basis set for element : V 
 NewGTO V 
 S 1 
   1  4239814.9912500000      1.0000000000
 S 1 
   1  1695925.9965000001      1.0000000000
 S 1 
   1  678370.3986000001      1.0000000000
 S 1 
   1  271348.1594400000      1.0000000000
 S 1 
   1   40672.0050780000      1.0000000000
 S 1 
   1    9257.0761385000      1.0000000000
 S 1 
   1    2622.7328773000      1.0000000000
 S 1 
   1     858.5948018500      1.0000000000
 S 1 
   1     314.1941865000      1.0000000000
 S 1 
   1     124.4786212700      1.0000000000
 S 1 
   1      50.4693993090      1.0000000000
 S 1 
   1      12.5138469110      1.0000000000
 S 1 
   1       5.3447758082      1.0000000000
 S 1 
   1       1.5755631295      1.0000000000
 S 1 
   1       0.6306903307      1.0000000000
 S 1 
   1       0.0879544416      1.0000000000
 S 1 
   1       0.0342969197      1.0000000000
 P 3 
   1    1450.0319327000     -0.0222847647
   2     343.7504988400     -0.1817959329
   3     110.8252170800     -0.8607412073
 P 3 
   1      41.8224645460     -0.2522537814
   2      17.0880737100     -0.4620379520
   3       7.2613218939     -0.3990010670
 P 1 
   1       2.9458145262      1.0000000000
 P 1 
   1       1.1650209680      1.0000000000
 P 1 
   1       0.4339937839      1.0000000000
 D 3 
   1      27.3603358640      0.0575501019
   2       7.4542765527      0.3023798347
   3       2.4632270217      0.7724212088
 D 1 
   1       0.8249954244      1.0000000000
 D 1 
   1       0.2526297057      1.0000000000
 P 1 
   1       0.1112480000      1.0000000000
 P 1 
   1       0.0363780000      1.0000000000
 F 1 
   1       1.8000000000      1.0000000000
  end;

---------------------------------
AUXILIARY/J BASIS SET INFORMATION
---------------------------------
There are 5 groups of distinct atoms

 Group   1 Type V   : 19s5p5d3f3g contracted to 8s5p5d2f3g pattern {121111111/11111/11111/21/111}
 Group   2 Type S   : 14s5p5d2f1g contracted to 8s4p3d1f1g pattern {71111111/2111/311/2/1}
 Group   3 Type O   : 12s5p4d2f1g contracted to 6s4p3d1f1g pattern {711111/2111/211/2/1}
 Group   4 Type C   : 12s5p4d2f1g contracted to 6s4p3d1f1g pattern {711111/2111/211/2/1}
 Group   5 Type H   : 5s2p1d contracted to 3s1p1d pattern {311/2/1}

Atom   0V    basis set group =>   1
Atom   1S    basis set group =>   2
Atom   2S    basis set group =>   2
Atom   3S    basis set group =>   2
Atom   4S    basis set group =>   2
Atom   5O    basis set group =>   3
Atom   6C    basis set group =>   4
Atom   7C    basis set group =>   4
Atom   8C    basis set group =>   4
Atom   9C    basis set group =>   4
Atom  10S    basis set group =>   2
Atom  11S    basis set group =>   2
Atom  12S    basis set group =>   2
Atom  13S    basis set group =>   2
Atom  14C    basis set group =>   4
Atom  15C    basis set group =>   4
Atom  16C    basis set group =>   4
Atom  17C    basis set group =>   4
Atom  18S    basis set group =>   2
Atom  19S    basis set group =>   2
Atom  20S    basis set group =>   2
Atom  21S    basis set group =>   2
Atom  22C    basis set group =>   4
Atom  23C    basis set group =>   4
Atom  24C    basis set group =>   4
Atom  25H    basis set group =>   5
Atom  26H    basis set group =>   5
Atom  27H    basis set group =>   5
Atom  28H    basis set group =>   5
Atom  29H    basis set group =>   5
Atom  30H    basis set group =>   5
Atom  31C    basis set group =>   4
Atom  32C    basis set group =>   4
Atom  33C    basis set group =>   4
Atom  34H    basis set group =>   5
Atom  35H    basis set group =>   5
Atom  36H    basis set group =>   5
Atom  37H    basis set group =>   5
Atom  38H    basis set group =>   5
Atom  39H    basis set group =>   5

-------------------------------------
AUXILIARY/J BASIS SET IN INPUT FORMAT
-------------------------------------

 # Auxiliary/J basis set for element : H 
 NewAuxJGTO H 
 S 3 
   1      15.6752927000      0.1007184237
   2       3.6063578000      0.3404257499
   3       1.2080016000      0.6491996172
 S 1 
   1       0.4726794000      1.0000000000
 S 1 
   1       0.2018100000      1.0000000000
 P 2 
   1       2.0281365000      0.5596620919
   2       0.5358730000      0.5596620919
 D 1 
   1       2.2165124000      1.0000000000
  end;

 # Auxiliary/J basis set for element : C 
 NewAuxJGTO C 
 S 7 
   1    1861.0916331000      0.0134602335
   2     642.9939764000      0.0299160374
   3     235.1105725000      0.1008649584
   4      90.7028894000      0.2370970548
   5      36.7794552000      0.3924037254
   6      15.6046273000      0.3195862154
   7       6.8907294000      0.0530104441
 S 1 
   1       3.1478850000     -1.0000000000
 S 1 
   1       1.4777287000      1.0000000000
 S 1 
   1       0.7076466000      1.0000000000
 S 1 
   1       0.3430122000      1.0000000000
 S 1 
   1       0.1669453000      1.0000000000
 P 2 
   1      13.5472892000     -0.6769313712
   2       5.4669419000     -0.3779500978
 P 1 
   1       2.1751721000      1.0000000000
 P 1 
   1       0.8582194000      1.0000000000
 P 1 
   1       0.3376720000      1.0000000000
 D 2 
   1       5.9287253000     -0.3533329857
   2       1.9809209000     -0.7456525731
 D 1 
   1       0.8055417000     -1.0000000000
 D 1 
   1       0.3531244000     -1.0000000000
 F 2 
   1       1.6755626000      0.6311076882
   2       0.5997536000      0.4968166032
 G 1 
   1       1.0024600000     -1.0000000000
  end;

 # Auxiliary/J basis set for element : O 
 NewAuxJGTO O 
 S 7 
   1    2876.8216605000      0.0168151159
   2    1004.7443032000      0.0340137548
   3     369.7579954000      0.1194951309
   4     142.9442404000      0.2664627624
   5      57.8366425000      0.4202764046
   6      24.3864983000      0.2765077335
   7      10.6622662000      0.0057008815
 S 1 
   1       4.8070437000     -1.0000000000
 S 1 
   1       2.2210770000      1.0000000000
 S 1 
   1       1.0447795000      1.0000000000
 S 1 
   1       0.4968425000      1.0000000000
 S 1 
   1       0.2371384000      1.0000000000
 P 2 
   1      64.2613382000     -0.2731534179
   2      16.3006076000     -0.8168011598
 P 1 
   1       4.3550542000      1.0000000000
 P 1 
   1       1.2019554000      1.0000000000
 P 1 
   1       0.3354196000      1.0000000000
 D 2 
   1       9.2146611000     -0.4661230638
   2       2.8435251000     -0.6600908911
 D 1 
   1       0.9955759000     -1.0000000000
 D 1 
   1       0.3649441000     -1.0000000000
 F 2 
   1       2.6420115000      0.5931563945
   2       0.7345613000      0.5931563945
 G 1 
   1       1.3931000000     -1.0000000000
  end;

 # Auxiliary/J basis set for element : S 
 NewAuxJGTO S 
 S 7 
   1    7399.0303145000      0.0295137551
   2    2710.1675859000      0.0559686311
   3    1034.3279062000      0.1764696370
   4     410.4645411000      0.3577969368
   5     168.9762502000      0.4299293578
   6      71.9687889000      0.1259148089
   7      31.6172683000     -0.0646025788
 S 1 
   1      14.2796836000      1.0000000000
 S 1 
   1       6.6060948000      1.0000000000
 S 1 
   1       3.1181477000      1.0000000000
 S 1 
   1       1.4954039000     -1.0000000000
 S 1 
   1       0.7254779000      1.0000000000
 S 1 
   1       0.3544216000      1.0000000000
 S 1 
   1       0.1735525000      1.0000000000
 P 2 
   1      12.6998799000      1.4059102813
   2       4.4295784000     -1.2124994202
 P 1 
   1       1.5232889000      1.0000000000
 P 1 
   1       0.5194667000     -1.0000000000
 P 1 
   1       0.1766547000     -1.0000000000
 D 3 
   1      16.8546461000      1.0295742104
   2       5.0810461000     -0.7461553923
   3       1.5102323000      0.8357028005
 D 1 
   1       0.4451331000      1.0000000000
 D 1 
   1       0.1308362000      1.0000000000
 F 2 
   1       1.0809860000      0.5572698934
   2       0.4161474000      0.5572698934
 G 1 
   1       0.6707100000     -1.0000000000
  end;

 # Auxiliary/J basis set for element : V 
 NewAuxJGTO V 
 S 12 
   1   11942.0842430000      0.0459866720
   2    2430.7110193000      0.1744615821
   3     841.0764301000      0.2900402792
   4     494.7508273000      0.1411212903
   5     291.0298903000      0.2660697186
   6     171.1940483000      0.0446365706
   7      59.2366916000     -0.0408204801
   8      34.8451117000      0.1394665381
   9      20.4971240000      0.2164746715
  10      12.0571314000      0.0864266611
  11       7.0924300000     -0.0568501658
  12       4.1720176000     -0.0126212852
 S 1 
   1       2.4541279000      1.0000000000
 S 1 
   1       1.4436046000      1.0000000000
 S 1 
   1       0.8491792000      1.0000000000
 S 1 
   1       0.2938336000      1.0000000000
 S 1 
   1       0.1728433000      1.0000000000
 S 1 
   1       0.1016725000      1.0000000000
 S 1 
   1       0.0598074000      1.0000000000
 P 1 
   1      16.7130979000     -1.0000000000
 P 1 
   1       4.7454037000     -1.0000000000
 P 1 
   1       1.3889998000      1.0000000000
 P 1 
   1       0.4142440000     -1.0000000000
 P 1 
   1       0.1243234000      1.0000000000
 D 1 
   1       7.7143225000      1.0000000000
 D 1 
   1       3.1170731000      1.0000000000
 D 1 
   1       1.2767950000     -1.0000000000
 D 1 
   1       0.5273386000      1.0000000000
 D 1 
   1       0.2184050000      1.0000000000
 F 2 
   1       3.1309344000     -1.0825667766
   2       1.0419780000      0.1809223232
 F 1 
   1       0.3559044000      1.0000000000
 G 1 
   1       8.7130110000      1.0000000000
 G 1 
   1       2.7493872000      1.0000000000
 G 1 
   1       0.8775089000      1.0000000000
  end;



           ************************************************************
           *        Program running with 8 parallel MPI-processes     *
           *              working on a common directory               *
           ************************************************************
------------------------------------------------------------------------------
                           ORCA GTO INTEGRAL CALCULATION
                           -- RI-GTO INTEGRALS CHOSEN --
------------------------------------------------------------------------------
------------------------------------------------------------------------------
                   ___                                                        
                  /   \      - P O W E R E D   B Y -                         
                 /     \                                                     
                 |  |  |   _    _      __       _____    __    __             
                 |  |  |  | |  | |    /  \     |  _  \  |  |  /  |          
                  \  \/   | |  | |   /    \    | | | |  |  | /  /          
                 / \  \   | |__| |  /  /\  \   | |_| |  |  |/  /          
                |  |  |   |  __  | /  /__\  \  |    /   |      \           
                |  |  |   | |  | | |   __   |  |    \   |  |\   \          
                \     /   | |  | | |  |  |  |  | |\  \  |  | \   \       
                 \___/    |_|  |_| |__|  |__|  |_| \__\ |__|  \__/        
                                                                              
                      - O R C A' S   B I G   F R I E N D -                    
                                      &                                       
                       - I N T E G R A L  F E E D E R -                       
                                                                              
 v1 FN, 2020, v2 2021                                                         
------------------------------------------------------------------------------


Reading SHARK input file input_109.SHARKINP.tmp ... ok
----------------------
SHARK INTEGRAL PACKAGE
----------------------

Number of atoms                             ...     40
Number of basis functions                   ...    681
Number of shells                            ...    331
Maximum angular momentum                    ...      3
Integral batch strategy                     ... SHARK/LIBINT Hybrid
RI-J (if used) integral strategy            ... SPLIT-RIJ (Revised 2003 algorithm where possible)
Printlevel                                  ...      1
Contraction scheme used                     ... SEGMENTED contraction
Coulomb Range Separation                    ... NOT USED
Exchange Range Separation                   ... NOT USED
Finite Nucleus Model                        ... NOT USED
Auxiliary Coulomb fitting basis             ... AVAILABLE
   # of basis functions in Aux-J            ...   1568
   # of shells in Aux-J                     ...    512
   Maximum angular momentum in Aux-J        ...      4
Auxiliary J/K fitting basis                 ... NOT available
Auxiliary Correlation fitting basis         ... NOT available
Auxiliary 'external' fitting basis          ... NOT available
Integral threshold                          ...     1.000000e-10
Primitive cut-off                           ...     1.000000e-11
Primitive pair pre-selection threshold      ...     1.000000e-11

Calculating pre-screening integrals         ... done (  0.1 sec) Dimension = 331
Organizing shell pair data                  ... done (  0.1 sec)
Shell pair information
Total number of shell pairs                 ...     54946
Shell pairs after pre-screening             ...     22679
Total number of primitive shell pairs       ...    221635
Primitive shell pairs kept                  ...     55323
          la=0 lb=0:   6403 shell pairs
          la=1 lb=0:   9091 shell pairs
          la=1 lb=1:   3196 shell pairs
          la=2 lb=0:   2130 shell pairs
          la=2 lb=1:   1538 shell pairs
          la=2 lb=2:    196 shell pairs
          la=3 lb=0:     57 shell pairs
          la=3 lb=1:     55 shell pairs
          la=3 lb=2:     12 shell pairs
          la=3 lb=3:      1 shell pairs

Calculating one electron integrals          ... done (  0.0 sec)
Calculating RI/J V-Matrix + Cholesky decomp.... done (  0.1 sec)
Calculating Nuclear repulsion               ... done (  0.0 sec) ENN=   5062.380723299847 Eh

SHARK setup successfully completed in   0.7 seconds

Maximum memory used throughout the entire GTOINT-calculation: 39.7 MB


           ************************************************************
           *        Program running with 8 parallel MPI-processes     *
           *              working on a common directory               *
           ************************************************************
-------------------------------------------------------------------------------
                                 ORCA SCF
-------------------------------------------------------------------------------

------------
SCF SETTINGS
------------
Hamiltonian:
 Density Functional     Method          .... DFT(GTOs)
 Exchange Functional    Exchange        .... B88
   X-Alpha parameter    XAlpha          ....  0.666667
   Becke's b parameter  XBeta           ....  0.004200
 Correlation Functional Correlation     .... LYP
 LDA part of GGA corr.  LDAOpt          .... VWN-5
 Gradients option       PostSCFGGA      .... off
 Hybrid DFT is turned on
   Fraction HF Exchange ScalHFX         ....  0.200000
   Scaling of DF-GGA-X  ScalDFX         ....  0.720000
   Scaling of DF-GGA-C  ScalDFC         ....  0.810000
   Scaling of DF-LDA-C  ScalLDAC        ....  1.000000
   Perturbative correction              ....  0.000000
   Density functional embedding theory  .... OFF
   NL short-range parameter             ....  4.800000
 RI-approximation to the Coulomb term is turned on
   Number of AuxJ basis functions       .... 1568
   RIJ-COSX (HFX calculated with COS-X)).... on


General Settings:
 Integral files         IntName         .... input_109
 Hartree-Fock type      HFTyp           .... UHF
 Total Charge           Charge          ....   -2
 Multiplicity           Mult            ....    2
 Number of Electrons    NEL             ....  321
 Basis Dimension        Dim             ....  681
 Nuclear Repulsion      ENuc            ....   5062.3807232998 Eh

Convergence Acceleration:
 DIIS                   CNVDIIS         .... on
   Start iteration      DIISMaxIt       ....    12
   Startup error        DIISStart       ....  0.200000
   # of expansion vecs  DIISMaxEq       ....     5
   Bias factor          DIISBfac        ....   1.050
   Max. coefficient     DIISMaxC        ....  10.000
 Trust-Rad. Augm. Hess. CNVTRAH         .... auto
   Auto Start mean grad. ratio tolernc. ....  1.125000
   Auto Start start iteration           ....    20
   Auto Start num. interpolation iter.  ....    10
   Max. Number of Micro iterations      ....    16
   Max. Number of Macro iterations      .... Maxiter - #DIIS iter
   Number of Davidson start vectors     ....     2
   Converg. threshold I  (grad. norm)   ....   5.000e-05
   Converg. threshold II (energy diff.) ....   1.000e-06
   Grad. Scal. Fac. for Micro threshold ....   0.100
   Minimum threshold for Micro iter.    ....   0.010
   NR start threshold (gradient norm)   ....   0.001
   Initial trust radius                 ....   0.400
   Minimum AH scaling param. (alpha)    ....   1.000
   Maximum AH scaling param. (alpha)    .... 1000.000
   Orbital update algorithm             .... Taylor
   White noise on init. David. guess    .... on
   Maximum white noise                  ....   0.010
   Quad. conv. algorithm                .... NR
 SOSCF                  CNVSOSCF        .... off
 Level Shifting         CNVShift        .... on
   Level shift para.    LevelShift      ....    0.2500
   Turn off err/grad.   ShiftErr        ....    0.0010
 Zerner damping         CNVZerner       .... off
 Static damping         CNVDamp         .... on
   Fraction old density DampFac         ....    0.7000
   Max. Damping (<1)    DampMax         ....    0.9800
   Min. Damping (>=0)   DampMin         ....    0.0000
   Turn off err/grad.   DampErr         ....    0.1000
 Fernandez-Rico         CNVRico         .... off

SCF Procedure:
 Maximum # iterations   MaxIter         ....   125
 SCF integral mode      SCFMode         .... Direct
   Integral package                     .... SHARK and LIBINT hybrid scheme
 Reset frequency        DirectResetFreq ....    20
 Integral Threshold     Thresh          ....  1.000e-10 Eh
 Primitive CutOff       TCut            ....  1.000e-11 Eh

Convergence Tolerance:
 Convergence Check Mode ConvCheckMode   .... Total+1el-Energy
 Convergence forced     ConvForced      .... 0
 Energy Change          TolE            ....  1.000e-06 Eh
 1-El. energy change                    ....  1.000e-03 Eh
 DIIS Error             TolErr          ....  1.000e-06


Diagonalization of the overlap matrix:
Smallest eigenvalue                        ... 8.305e-05
Time for diagonalization                   ...    0.185 sec
Threshold for overlap eigenvalues          ... 1.000e-08
Number of eigenvalues below threshold      ... 0
Time for construction of square roots      ...    0.159 sec
Total time needed                          ...    0.347 sec

Time for model grid setup =    0.355 sec

------------------------------
INITIAL GUESS: MODEL POTENTIAL
------------------------------
Loading Hartree-Fock densities                     ... done
Calculating cut-offs                               ... done
Initializing the effective Hamiltonian             ... done
Setting up the integral package (SHARK)            ... done
Starting the Coulomb interaction                   ... done (   0.3 sec)
Reading the grid                                   ... done
Mapping shells                                     ... done
Starting the XC term evaluation                    ... done (   0.2 sec)
  promolecular density results
     # of electrons  =    318.994946262
     EX              =   -428.253374605
     EC              =    -12.534222517
     EX+EC           =   -440.787597122
Transforming the Hamiltonian                       ... done (   0.2 sec)
Diagonalizing the Hamiltonian                      ... done (   0.2 sec)
Back transforming the eigenvectors                 ... done (   0.1 sec)
Now organizing SCF variables                       ... done
                      ------------------
                      INITIAL GUESS DONE (   1.3 sec)
                      ------------------
-------------------
DFT GRID GENERATION
-------------------

General Integration Accuracy     IntAcc      ... 4.388
Radial Grid Type                 RadialGrid  ... OptM3 with GC (2021)
Angular Grid (max. ang.)         AngularGrid ... 4 (Lebedev-302)
Angular grid pruning method      GridPruning ... 4 (adaptive)
Weight generation scheme         WeightScheme... Becke
Basis function cutoff            BFCut       ... 1.0000e-10
Integration weight cutoff        WCut        ... 1.0000e-14
Angular grids for H and He will be reduced by one unit
Partially contracted basis set               ... off
Rotationally invariant grid construction     ... off

Total number of grid points                  ...   237330
Total number of batches                      ...     3726
Average number of points per batch           ...       63
Average number of grid points per atom       ...     5933
Time for grid setup =    1.799 sec

--------------------
COSX GRID GENERATION
--------------------

GRIDX 1
-------
General Integration Accuracy     IntAcc      ... 3.816
Radial Grid Type                 RadialGrid  ... OptM3 with GC (2021)
Angular Grid (max. ang.)         AngularGrid ... 1 (Lebedev-50)
Angular grid pruning method      GridPruning ... 4 (adaptive)
Weight generation scheme         WeightScheme... Becke
Basis function cutoff            BFCut       ... 1.0000e-10
Integration weight cutoff        WCut        ... 1.0000e-14
Angular grids for H and He will be reduced by one unit
Partially contracted basis set               ... on
Rotationally invariant grid construction     ... off

Total number of grid points                  ...    29203
Total number of batches                      ...      479
Average number of points per batch           ...       60
Average number of grid points per atom       ...      730
UseSFitting                                  ... on

GRIDX 2
-------
General Integration Accuracy     IntAcc      ... 4.020
Radial Grid Type                 RadialGrid  ... OptM3 with GC (2021)
Angular Grid (max. ang.)         AngularGrid ... 2 (Lebedev-110)
Angular grid pruning method      GridPruning ... 4 (adaptive)
Weight generation scheme         WeightScheme... Becke
Basis function cutoff            BFCut       ... 1.0000e-10
Integration weight cutoff        WCut        ... 1.0000e-14
Angular grids for H and He will be reduced by one unit
Partially contracted basis set               ... on
Rotationally invariant grid construction     ... off

Total number of grid points                  ...    64081
Total number of batches                      ...     1020
Average number of points per batch           ...       62
Average number of grid points per atom       ...     1602
UseSFitting                                  ... on

GRIDX 3
-------
General Integration Accuracy     IntAcc      ... 4.338
Radial Grid Type                 RadialGrid  ... OptM3 with GC (2021)
Angular Grid (max. ang.)         AngularGrid ... 3 (Lebedev-194)
Angular grid pruning method      GridPruning ... 4 (adaptive)
Weight generation scheme         WeightScheme... Becke
Basis function cutoff            BFCut       ... 1.0000e-10
Integration weight cutoff        WCut        ... 1.0000e-14
Angular grids for H and He will be reduced by one unit
Partially contracted basis set               ... on
Rotationally invariant grid construction     ... off

Total number of grid points                  ...   147285
Total number of batches                      ...     2326
Average number of points per batch           ...       63
Average number of grid points per atom       ...     3682
UseSFitting                                  ... on

Time for X-Grid setup             =    1.910 sec

--------------
SCF ITERATIONS
--------------
ITER       Energy         Delta-E        Max-DP      RMS-DP      [F,P]     Damp
               ***  Starting incremental Fock matrix formation  ***
  0  -6336.4744798088   0.000000000000 0.05536030  0.00067934  0.2300893 0.7000
  1  -6336.8448012190  -0.370321410157 0.11800021  0.00064041  0.1558744 0.7000
                               ***Turning on DIIS***
  2  -6337.0218658318  -0.177064612800 0.05518514  0.00033853  0.1090845 0.7000
  3  -6337.1191930771  -0.097327245284 0.05123235  0.00058136  0.0771956 0.0000
  4  -6337.3548042612  -0.235611184135 0.06825082  0.00033006  0.0138454 0.0000
  5  -6337.3610227889  -0.006218527707 0.01576810  0.00009059  0.0128723 0.0000
  6  -6337.3626552651  -0.001632476184 0.00438528  0.00004297  0.0042460 0.0000
  7  -6337.3630911048  -0.000435839716 0.00174344  0.00002361  0.0015418 0.0000
  8  -6337.3632827803  -0.000191675532 0.00278886  0.00002029  0.0015275 0.0000
  9  -6337.3634033889  -0.000120608596 0.00367148  0.00004491  0.0009374 0.0000
               *** Restarting incremental Fock matrix formation ***
                                   *** Resetting DIIS ***
 10  -6337.3635542013  -0.000150812381 0.00140286  0.00001572  0.0007317 0.0000
 11  -6337.3635215451   0.000032656215 0.00053801  0.00000417  0.0022784 0.0000
 12  -6337.3635684273  -0.000046882226 0.00048504  0.00000579  0.0008487 0.0000
 13  -6337.3635777873  -0.000009359995 0.00065558  0.00000451  0.0002911 0.0000
 14  -6337.3635805352  -0.000002747929 0.00038355  0.00000281  0.0002955 0.0000
 15  -6337.3635821149  -0.000001579671 0.00018268  0.00000140  0.0002043 0.0000
 16  -6337.3635824536  -0.000000338712 0.00012070  0.00000112  0.0000868 0.0000
 17  -6337.3635827093  -0.000000255633 0.00014847  0.00000064  0.0000301 0.0000
 18  -6337.3635828285  -0.000000119227 0.00007442  0.00000041  0.0000252 0.0000
 19  -6337.3635827126   0.000000115927 0.00005409  0.00000025  0.0000223 0.0000
 20  -6337.3635826471   0.000000065469 0.00003738  0.00000022  0.0000263 0.0000
                 **** Energy Check signals convergence ****

               *****************************************************
               *                     SUCCESS                       *
               *           SCF CONVERGED AFTER  21 CYCLES          *
               *****************************************************

Old exchange energy                            =    -85.924957211 Eh
New exchange energy                            =    -85.924877939 Eh
Exchange energy change after final integration =      0.000079272 Eh
Total energy after final integration           =  -6337.363503522 Eh
Final COS-X integration done in                =    21.305 sec

----------------
TOTAL SCF ENERGY
----------------

Total Energy       :        -6337.36350352 Eh         -172448.42804 eV

Components:
Nuclear Repulsion  :         5062.38072330 Eh          137754.38278 eV
Electronic Energy  :       -11399.74422682 Eh         -310202.81082 eV
One Electron Energy:       -18893.92498281 Eh         -514129.83664 eV
Two Electron Energy:         7494.18075599 Eh          203927.02582 eV
Max COSX asymmetry :            0.00000095 Eh               0.00003 eV

Virial components:
Potential Energy   :       -12659.01333690 Eh         -344469.26538 eV
Kinetic Energy     :         6321.64983338 Eh          172020.83734 eV
Virial Ratio       :            2.00248569


DFT components:
N(Alpha)           :      160.999974880734 electrons
N(Beta)            :      159.999974169147 electrons
N(Total)           :      320.999949049880 electrons
E(X)               :     -341.467048847856 Eh       
E(C)               :      -14.718529187681 Eh       
E(XC)              :     -356.185578035536 Eh       
DFET-embed. en.    :        0.000000000000 Eh       

---------------
SCF CONVERGENCE
---------------

  Last Energy change         ...   -1.4679e-07  Tolerance :   1.0000e-06
  Last MAX-Density change    ...    0.0000e+00  Tolerance :   1.0000e-05
  Last RMS-Density change    ...    0.0000e+00  Tolerance :   1.0000e-06
  Last DIIS Error            ...    1.2060e-05  Tolerance :   1.0000e-06

             **** THE GBW FILE WAS UPDATED (input_109.gbw) ****
             **** DENSITY input_109.scfp WAS UPDATED ****
             **** ENERGY FILE WAS UPDATED (input_109.en.tmp) ****
----------------------
UHF SPIN CONTAMINATION
----------------------

Warning: in a DFT calculation there is little theoretical justification to 
         calculate <S**2> as in Hartree-Fock theory. We will do it anyways
         but you should keep in mind that the values have only limited relevance

Expectation value of <S**2>     :     0.765666
Ideal value S*(S+1) for S=0.5   :     0.750000
Deviation                       :     0.015666

             **** THE GBW FILE WAS UPDATED (input_109.gbw) ****
             **** DENSITY input_109.scfp WAS UPDATED ****
----------------
ORBITAL ENERGIES
----------------
                 SPIN UP ORBITALS
  NO   OCC          E(Eh)            E(eV) 
   0   1.0000    -196.675765     -5351.8197 
   1   1.0000     -88.737112     -2414.6596 
   2   1.0000     -88.737007     -2414.6567 
   3   1.0000     -88.733559     -2414.5629 
   4   1.0000     -88.733543     -2414.5625 
   5   1.0000     -88.732520     -2414.5346 
   6   1.0000     -88.732428     -2414.5321 
   7   1.0000     -88.730676     -2414.4844 
   8   1.0000     -88.730495     -2414.4795 
   9   1.0000     -88.641145     -2412.0482 
  10   1.0000     -88.640642     -2412.0345 
  11   1.0000     -88.640394     -2412.0277 
  12   1.0000     -88.640156     -2412.0213 
  13   1.0000     -22.051157      -600.0425 
  14   1.0000     -18.891044      -514.0514 
  15   1.0000     -18.557604      -504.9781 
  16   1.0000     -18.552431      -504.8373 
  17   1.0000     -18.552334      -504.8347 
  18   1.0000     -10.090479      -274.5759 
  19   1.0000     -10.089954      -274.5616 
  20   1.0000     -10.078530      -274.2507 
  21   1.0000     -10.076206      -274.1875 
  22   1.0000     -10.064261      -273.8625 
  23   1.0000     -10.064209      -273.8611 
  24   1.0000     -10.051269      -273.5089 
  25   1.0000     -10.050949      -273.5002 
  26   1.0000     -10.048665      -273.4381 
  27   1.0000     -10.040019      -273.2028 
  28   1.0000     -10.019794      -272.6525 
  29   1.0000     -10.019000      -272.6309 
  30   1.0000     -10.018743      -272.6239 
  31   1.0000     -10.017805      -272.5983 
  32   1.0000      -7.790453      -211.9890 
  33   1.0000      -7.790343      -211.9860 
  34   1.0000      -7.787006      -211.8952 
  35   1.0000      -7.786986      -211.8947 
  36   1.0000      -7.785754      -211.8611 
  37   1.0000      -7.785710      -211.8599 
  38   1.0000      -7.783927      -211.8114 
  39   1.0000      -7.783793      -211.8078 
  40   1.0000      -7.695408      -209.4027 
  41   1.0000      -7.694982      -209.3911 
  42   1.0000      -7.694687      -209.3831 
  43   1.0000      -7.694396      -209.3752 
  44   1.0000      -5.755510      -156.6154 
  45   1.0000      -5.755397      -156.6123 
  46   1.0000      -5.751994      -156.5197 
  47   1.0000      -5.751989      -156.5196 
  48   1.0000      -5.751977      -156.5193 
  49   1.0000      -5.751880      -156.5166 
  50   1.0000      -5.750702      -156.4846 
  51   1.0000      -5.750655      -156.4833 
  52   1.0000      -5.748871      -156.4347 
  53   1.0000      -5.748733      -156.4310 
  54   1.0000      -5.748578      -156.4268 
  55   1.0000      -5.748569      -156.4265 
  56   1.0000      -5.746251      -156.3634 
  57   1.0000      -5.746198      -156.3620 
  58   1.0000      -5.745212      -156.3352 
  59   1.0000      -5.745113      -156.3325 
  60   1.0000      -5.744443      -156.3142 
  61   1.0000      -5.744301      -156.3104 
  62   1.0000      -5.741801      -156.2424 
  63   1.0000      -5.741777      -156.2417 
  64   1.0000      -5.741596      -156.2368 
  65   1.0000      -5.741556      -156.2357 
  66   1.0000      -5.739752      -156.1866 
  67   1.0000      -5.739618      -156.1830 
  68   1.0000      -5.660732      -154.0363 
  69   1.0000      -5.660301      -154.0246 
  70   1.0000      -5.659992      -154.0162 
  71   1.0000      -5.659723      -154.0089 
  72   1.0000      -5.654064      -153.8549 
  73   1.0000      -5.653642      -153.8434 
  74   1.0000      -5.653341      -153.8352 
  75   1.0000      -5.653081      -153.8282 
  76   1.0000      -5.652738      -153.8188 
  77   1.0000      -5.652297      -153.8068 
  78   1.0000      -5.652016      -153.7992 
  79   1.0000      -5.651691      -153.7903 
  80   1.0000      -2.444806       -66.5265 
  81   1.0000      -1.486109       -40.4391 
  82   1.0000      -1.474441       -40.1216 
  83   1.0000      -1.473632       -40.0996 
  84   1.0000      -0.716949       -19.5092 
  85   1.0000      -0.709897       -19.3173 
  86   1.0000      -0.694958       -18.9108 
  87   1.0000      -0.686021       -18.6676 
  88   1.0000      -0.650644       -17.7049 
  89   1.0000      -0.643236       -17.5033 
  90   1.0000      -0.631763       -17.1911 
  91   1.0000      -0.617382       -16.7998 
  92   1.0000      -0.611354       -16.6358 
  93   1.0000      -0.581454       -15.8222 
  94   1.0000      -0.576056       -15.6753 
  95   1.0000      -0.574875       -15.6431 
  96   1.0000      -0.573647       -15.6097 
  97   1.0000      -0.511380       -13.9154 
  98   1.0000      -0.496633       -13.5141 
  99   1.0000      -0.496047       -13.4981 
 100   1.0000      -0.488372       -13.2893 
 101   1.0000      -0.478890       -13.0312 
 102   1.0000      -0.472464       -12.8564 
 103   1.0000      -0.463773       -12.6199 
 104   1.0000      -0.446668       -12.1545 
 105   1.0000      -0.419661       -11.4195 
 106   1.0000      -0.412769       -11.2320 
 107   1.0000      -0.359393        -9.7796 
 108   1.0000      -0.355728        -9.6798 
 109   1.0000      -0.326700        -8.8900 
 110   1.0000      -0.320061        -8.7093 
 111   1.0000      -0.315324        -8.5804 
 112   1.0000      -0.310864        -8.4590 
 113   1.0000      -0.304215        -8.2781 
 114   1.0000      -0.299804        -8.1581 
 115   1.0000      -0.292501        -7.9594 
 116   1.0000      -0.284721        -7.7476 
 117   1.0000      -0.259287        -7.0556 
 118   1.0000      -0.257883        -7.0174 
 119   1.0000      -0.256756        -6.9867 
 120   1.0000      -0.255006        -6.9391 
 121   1.0000      -0.245340        -6.6760 
 122   1.0000      -0.235080        -6.3969 
 123   1.0000      -0.230784        -6.2800 
 124   1.0000      -0.223323        -6.0769 
 125   1.0000      -0.218943        -5.9577 
 126   1.0000      -0.215348        -5.8599 
 127   1.0000      -0.214880        -5.8472 
 128   1.0000      -0.213557        -5.8112 
 129   1.0000      -0.194124        -5.2824 
 130   1.0000      -0.187483        -5.1017 
 131   1.0000      -0.186468        -5.0741 
 132   1.0000      -0.185537        -5.0487 
 133   1.0000      -0.179881        -4.8948 
 134   1.0000      -0.160459        -4.3663 
 135   1.0000      -0.151612        -4.1256 
 136   1.0000      -0.146985        -3.9997 
 137   1.0000      -0.136479        -3.7138 
 138   1.0000      -0.135513        -3.6875 
 139   1.0000      -0.134147        -3.6503 
 140   1.0000      -0.126059        -3.4302 
 141   1.0000      -0.122128        -3.3233 
 142   1.0000      -0.114318        -3.1107 
 143   1.0000      -0.110655        -3.0111 
 144   1.0000      -0.101111        -2.7514 
 145   1.0000      -0.099142        -2.6978 
 146   1.0000      -0.098962        -2.6929 
 147   1.0000      -0.095582        -2.6009 
 148   1.0000      -0.075437        -2.0528 
 149   1.0000      -0.070091        -1.9073 
 150   1.0000      -0.067837        -1.8459 
 151   1.0000      -0.053177        -1.4470 
 152   1.0000      -0.046494        -1.2652 
 153   1.0000      -0.038885        -1.0581 
 154   1.0000      -0.038018        -1.0345 
 155   1.0000      -0.032350        -0.8803 
 156   1.0000      -0.025957        -0.7063 
 157   1.0000      -0.020003        -0.5443 
 158   1.0000      -0.016263        -0.4425 
 159   1.0000       0.019372         0.5271 
 160   1.0000       0.040270         1.0958 
 161   0.0000       0.128423         3.4946 
 162   0.0000       0.136498         3.7143 
 163   0.0000       0.143415         3.9025 
 164   0.0000       0.161458         4.3935 
 165   0.0000       0.165367         4.4999 
 166   0.0000       0.170140         4.6298 
 167   0.0000       0.170548         4.6408 
 168   0.0000       0.172086         4.6827 
 169   0.0000       0.173649         4.7252 
 170   0.0000       0.176475         4.8021 
 171   0.0000       0.176862         4.8126 
 172   0.0000       0.186916         5.0863 
 173   0.0000       0.188344         5.1251 
 174   0.0000       0.189812         5.1651 
 175   0.0000       0.196115         5.3366 
 176   0.0000       0.198086         5.3902 
 177   0.0000       0.201804         5.4914 
 178   0.0000       0.202188         5.5018 
 179   0.0000       0.207903         5.6573 
 180   0.0000       0.213771         5.8170 
 181   0.0000       0.214692         5.8421 
 182   0.0000       0.217319         5.9136 
 183   0.0000       0.217830         5.9275 
 184   0.0000       0.223515         6.0822 
 185   0.0000       0.226592         6.1659 
 186   0.0000       0.229531         6.2459 
 187   0.0000       0.232198         6.3184 
 188   0.0000       0.237633         6.4663 
 189   0.0000       0.239076         6.5056 
 190   0.0000       0.240566         6.5461 
 191   0.0000       0.246631         6.7112 
 192   0.0000       0.247963         6.7474 
 193   0.0000       0.254094         6.9143 
 194   0.0000       0.261017         7.1026 
 195   0.0000       0.266888         7.2624 
 196   0.0000       0.268669         7.3109 
 197   0.0000       0.272639         7.4189 
 198   0.0000       0.274288         7.4638 
 199   0.0000       0.275812         7.5052 
 200   0.0000       0.287765         7.8305 
 201   0.0000       0.296104         8.0574 
 202   0.0000       0.299830         8.1588 
 203   0.0000       0.308009         8.3813 
 204   0.0000       0.309444         8.4204 
 205   0.0000       0.323286         8.7971 
 206   0.0000       0.328348         8.9348 
 207   0.0000       0.332285         9.0419 
 208   0.0000       0.333107         9.0643 
 209   0.0000       0.341813         9.3012 
 210   0.0000       0.345783         9.4092 
 211   0.0000       0.348265         9.4768 
 212   0.0000       0.349072         9.4987 
 213   0.0000       0.354303         9.6411 
 214   0.0000       0.359266         9.7761 
 215   0.0000       0.367066         9.9884 
 216   0.0000       0.371427        10.1070 
 217   0.0000       0.373949        10.1757 
 218   0.0000       0.376575        10.2471 
 219   0.0000       0.382752        10.4152 
 220   0.0000       0.386826        10.5261 
 221   0.0000       0.388681        10.5766 
 222   0.0000       0.392301        10.6751 
 223   0.0000       0.396716        10.7952 
 224   0.0000       0.400779        10.9058 
 225   0.0000       0.401647        10.9294 
 226   0.0000       0.405532        11.0351 
 227   0.0000       0.409947        11.1552 
 228   0.0000       0.414810        11.2875 
 229   0.0000       0.420895        11.4531 
 230   0.0000       0.421630        11.4731 
 231   0.0000       0.423651        11.5281 
 232   0.0000       0.425999        11.5920 
 233   0.0000       0.432480        11.7684 
 234   0.0000       0.435101        11.8397 
 235   0.0000       0.435664        11.8550 
 236   0.0000       0.446779        12.1575 
 237   0.0000       0.451653        12.2901 
 238   0.0000       0.454255        12.3609 
 239   0.0000       0.457080        12.4378 
 240   0.0000       0.465640        12.6707 
 241   0.0000       0.466479        12.6935 
 242   0.0000       0.470861        12.8128 
 243   0.0000       0.472254        12.8507 
 244   0.0000       0.473389        12.8816 
 245   0.0000       0.477920        13.0049 
 246   0.0000       0.479057        13.0358 
 247   0.0000       0.482158        13.1202 
 248   0.0000       0.484458        13.1828 
 249   0.0000       0.487442        13.2640 
 250   0.0000       0.493552        13.4302 
 251   0.0000       0.494985        13.4692 
 252   0.0000       0.500273        13.6131 
 253   0.0000       0.503486        13.7005 
 254   0.0000       0.506732        13.7889 
 255   0.0000       0.509896        13.8750 
 256   0.0000       0.510816        13.9000 
 257   0.0000       0.515192        14.0191 
 258   0.0000       0.517773        14.0893 
 259   0.0000       0.520039        14.1510 
 260   0.0000       0.520347        14.1594 
 261   0.0000       0.523961        14.2577 
 262   0.0000       0.524901        14.2833 
 263   0.0000       0.525060        14.2876 
 264   0.0000       0.527502        14.3541 
 265   0.0000       0.528203        14.3731 
 266   0.0000       0.531128        14.4527 
 267   0.0000       0.531520        14.4634 
 268   0.0000       0.536897        14.6097 
 269   0.0000       0.545164        14.8347 
 270   0.0000       0.547091        14.8871 
 271   0.0000       0.551814        15.0156 
 272   0.0000       0.552717        15.0402 
 273   0.0000       0.558596        15.2002 
 274   0.0000       0.562338        15.3020 
 275   0.0000       0.565741        15.3946 
 276   0.0000       0.569690        15.5021 
 277   0.0000       0.571583        15.5536 
 278   0.0000       0.578798        15.7499 
 279   0.0000       0.580097        15.7852 
 280   0.0000       0.580189        15.7878 
 281   0.0000       0.589102        16.0303 
 282   0.0000       0.589648        16.0451 
 283   0.0000       0.594054        16.1650 
 284   0.0000       0.597425        16.2568 
 285   0.0000       0.604190        16.4408 
 286   0.0000       0.604489        16.4490 
 287   0.0000       0.614170        16.7124 
 288   0.0000       0.614677        16.7262 
 289   0.0000       0.615897        16.7594 
 290   0.0000       0.618621        16.8335 
 291   0.0000       0.625110        17.0101 
 292   0.0000       0.632043        17.1988 
 293   0.0000       0.633215        17.2307 
 294   0.0000       0.637099        17.3363 
 295   0.0000       0.637820        17.3560 
 296   0.0000       0.642901        17.4942 
 297   0.0000       0.649107        17.6631 
 298   0.0000       0.656801        17.8725 
 299   0.0000       0.658285        17.9128 
 300   0.0000       0.664228        18.0746 
 301   0.0000       0.674747        18.3608 
 302   0.0000       0.684483        18.6257 
 303   0.0000       0.708616        19.2824 
 304   0.0000       0.711370        19.3574 
 305   0.0000       0.715780        19.4774 
 306   0.0000       0.716036        19.4843 
 307   0.0000       0.733303        19.9542 
 308   0.0000       0.735205        20.0059 
 309   0.0000       0.746069        20.3016 
 310   0.0000       0.746723        20.3194 
 311   0.0000       0.762920        20.7601 
 312   0.0000       0.765478        20.8297 
 313   0.0000       0.768330        20.9073 
 314   0.0000       0.776486        21.1293 
 315   0.0000       0.782366        21.2893 
 316   0.0000       0.793149        21.5827 
 317   0.0000       0.797425        21.6990 
 318   0.0000       0.809309        22.0224 
 319   0.0000       0.812419        22.1070 
 320   0.0000       0.820036        22.3143 
 321   0.0000       0.821475        22.3535 
 322   0.0000       0.825064        22.4511 
 323   0.0000       0.842749        22.9324 
 324   0.0000       0.845855        23.0169 
 325   0.0000       0.847178        23.0529 
 326   0.0000       0.856719        23.3125 
 327   0.0000       0.862389        23.4668 
 328   0.0000       0.864341        23.5199 
 329   0.0000       0.869325        23.6555 
 330   0.0000       0.870659        23.6918 
 331   0.0000       0.871922        23.7262 
 332   0.0000       0.872359        23.7381 
 333   0.0000       0.876681        23.8557 
 334   0.0000       0.885562        24.0974 
 335   0.0000       0.897841        24.4315 
 336   0.0000       0.899211        24.4688 
 337   0.0000       0.912691        24.8356 
 338   0.0000       0.914517        24.8853 
 339   0.0000       0.917036        24.9538 
 340   0.0000       0.926115        25.2009 
 341   0.0000       0.935289        25.4505 
 342   0.0000       0.939315        25.5601 
 343   0.0000       0.939570        25.5670 
 344   0.0000       0.942178        25.6380 
 345   0.0000       0.944191        25.6927 
 346   0.0000       0.951717        25.8975 
 347   0.0000       0.952454        25.9176 
 348   0.0000       0.967408        26.3245 
 349   0.0000       0.975058        26.5327 
 350   0.0000       0.978339        26.6220 
 351   0.0000       0.979279        26.6475 
 352   0.0000       0.988870        26.9085 
 353   0.0000       1.005620        27.3643 
 354   0.0000       1.006100        27.3774 
 355   0.0000       1.012493        27.5513 
 356   0.0000       1.013244        27.5718 
 357   0.0000       1.014333        27.6014 
 358   0.0000       1.015942        27.6452 
 359   0.0000       1.019814        27.7505 
 360   0.0000       1.033736        28.1294 
 361   0.0000       1.034642        28.1541 
 362   0.0000       1.041219        28.3330 
 363   0.0000       1.049565        28.5601 
 364   0.0000       1.059753        28.8373 
 365   0.0000       1.062288        28.9063 
 366   0.0000       1.065821        29.0025 
 367   0.0000       1.066976        29.0339 
 368   0.0000       1.073716        29.2173 
 369   0.0000       1.078555        29.3490 
 370   0.0000       1.084663        29.5152 
 371   0.0000       1.094448        29.7815 
 372   0.0000       1.097286        29.8587 
 373   0.0000       1.101634        29.9770 
 374   0.0000       1.105489        30.0819 
 375   0.0000       1.107577        30.1387 
 376   0.0000       1.111794        30.2535 
 377   0.0000       1.118178        30.4272 
 378   0.0000       1.133652        30.8482 
 379   0.0000       1.140788        31.0424 
 380   0.0000       1.144843        31.1528 
 381   0.0000       1.157602        31.4999 
 382   0.0000       1.158614        31.5275 
 383   0.0000       1.162018        31.6201 
 384   0.0000       1.165402        31.7122 
 385   0.0000       1.198273        32.6067 
 386   0.0000       1.204730        32.7824 
 387   0.0000       1.233877        33.5755 
 388   0.0000       1.234756        33.5994 
 389   0.0000       1.237943        33.6861 
 390   0.0000       1.242098        33.7992 
 391   0.0000       1.248972        33.9862 
 392   0.0000       1.274652        34.6850 
 393   0.0000       1.283148        34.9162 
 394   0.0000       1.297420        35.3046 
 395   0.0000       1.304875        35.5074 
 396   0.0000       1.315520        35.7971 
 397   0.0000       1.322754        35.9940 
 398   0.0000       1.324269        36.0352 
 399   0.0000       1.333321        36.2815 
 400   0.0000       1.339932        36.4614 
 401   0.0000       1.352324        36.7986 
 402   0.0000       1.357804        36.9477 
 403   0.0000       1.396618        38.0039 
 404   0.0000       1.408797        38.3353 
 405   0.0000       1.411590        38.4113 
 406   0.0000       1.426328        38.8123 
 407   0.0000       1.426793        38.8250 
 408   0.0000       1.428760        38.8785 
 409   0.0000       1.439846        39.1802 
 410   0.0000       1.441010        39.2119 
 411   0.0000       1.450159        39.4608 
 412   0.0000       1.451444        39.4958 
 413   0.0000       1.486113        40.4392 
 414   0.0000       1.494015        40.6542 
[...]
Total number of batches                      ...      302
Average number of points per batch           ...       58
Average number of grid points per atom       ...      444

Memory available               ... 821.9 MB
Memory needed per perturbation ...  41.3 MB
Perturbations treated per batch... 3
Number of batches              ... 1
     CP-SCF ITERATION   0:   4.1237e-02 (   4.7 sec   0/  3 done)
     CP-SCF ITERATION   1:   1.3137e-03 (   4.9 sec   0/  3 done)
     CP-SCF ITERATION   2:   1.4325e-04 (   4.9 sec   3/  3 done)
                    *** THE CP-SCF HAS CONVERGED ***

Forming final perturbed densities           ... done
Transforming perturbed density to AO basis  ... done

 Raw HFC matrix (all values in MHz): 
 -----------------------------------
                -0.0275               0.0092              -0.0985
                 0.0094              -0.0743              -0.0199
                -0.0982              -0.0196               0.1270

 A(FC)           0.0082               0.0082               0.0082
 A(SD)          -0.0839              -0.0857               0.1696
 A(ORB+DIA)      0.0005               0.0012              -0.0011    A(PC) =   0.0002
 A(ORB)          0.0005               0.0012              -0.0011    A(PC) =   0.0002
 A(DIA)         -0.0000              -0.0000               0.0000    A(PC) =  -0.0000
             ----------           ----------           ----------
 A(Tot)         -0.0753              -0.0763               0.1767    A(iso)=    0.0084
 Orientation: 
  X           0.8856973           -0.1603514            0.4356922
  Y          -0.2188124           -0.9718692            0.0871280
  Z           0.4094647           -0.1725039           -0.8958689

Notes:  (1) The A matrix conforms to the "SAI" spin Hamiltonian convention.
        (2) Tensor is right-handed.

 Raw EFG matrix (all values in a.u.**-3):
 -----------------------------------
             0.1826      -0.0705      -0.1701
            -0.0705      -0.1255       0.0316
            -0.1701       0.0316      -0.0571

 V(El)       0.5458       0.8128      -1.3586
 V(Nuc)     -0.6833      -0.9606       1.6439
         ----------   ----------   ----------
 V(Tot)     -0.1376      -0.1478       0.2853 
 Orientation: 
  X       0.0799423    0.4806569   -0.8732572
  Y      -0.8585571    0.4783054    0.1846716
  Z       0.5064473    0.7349782    0.4509083

Note: Tensor is right-handed


 Quadrupole tensor eigenvalues (in MHz;Q= 0.0029 I=  1.0)
  e**2qQ            =     0.191587 MHz 
  e**2qQ/(4I*(2I-1))=     0.047897 MHz 
  eta               =     0.035760
  NOTE: the diagonal representation of the SH term I*Q*I = e**2qQ/(4I(2I-1))*[-(1-eta),-(1+eta),2]

 RHO(0)=      0.441892318 a.u.**-3

 -----------------------------------------------------------
 Nucleus  39H : A:ISTP=    1 I=  0.5 P=533.5514 MHz/au**3
                Q:ISTP=    2 I=  1.0 Q=  0.0029 barn     
 -----------------------------------------------------------
 Solving for nuclear perturbation:
Forming RHS of the CP-SCF equations         ... 
Calc. nucleus orbit integrals (SHARK)       ... done

------------------------------------------------------------------------------
                           ORCA CP-SCF CALCULATION
------------------------------------------------------------------------------

Input orbitals are from        ... input_109.gbw
Input Perturbation             ... input_109.pin.tmp
Wavefunction output            ... input_109.pout.tmp
Perturbation mode              ... Imaginary perturbation
Solver                         ... POPLE
Max. number of iterations      ... 64
Convergence tolerance          ... 1.000e-03
Integral handling              ... Direct
DFT GridXC                     ... 1
COSX GridX                     ... 1
COSX IntAccX                   ... 3.067
COSX Algorithm                 ... Auto
Number of perturbations        ... 3
Number of operators            ... 2
Orbital ranges used for CP-SCF:
 Operator 0:  Orbitals   0...160  to 161...680
 Operator 1:  Orbitals   0...159  to 160...680
Variables per perturbation     ... 167080
DFT calculation                         ... on
XC functional terms                     ... off
Hybrid DFT                              ... on
   Exchange mixing (SCF)                ...  0.200
   Exchange mixing (CP-SCF)             ...  0.200
   GGA exch. scaling(SCF)               ...  0.720
   GGA exch. scaling (CP-SCF)           ...  0.720
   GGA corr. scaling (SCF)              ...  0.810
   GGA corr. scaling (CP-SCF)           ...  0.810

CP-SCF GRID
-----------

General Integration Accuracy     IntAcc      ... 3.467
Radial Grid Type                 RadialGrid  ... OptM3 with GC (2021)
Angular Grid (max. ang.)         AngularGrid ... 1 (Lebedev-50)
Angular grid pruning method      GridPruning ... 4 (adaptive)
Weight generation scheme         WeightScheme... Becke
Basis function cutoff            BFCut       ... 1.0000e-10
Integration weight cutoff        WCut        ... 1.0000e-14
Angular grids for H and He will be reduced by one unit
Partially contracted basis set               ... off
Rotationally invariant grid construction     ... off

Total number of grid points                  ...    39373
Total number of batches                      ...      636
Average number of points per batch           ...       61
Average number of grid points per atom       ...      984

CP-SCF GRIDX
------------

General Integration Accuracy     IntAcc      ... 3.067
Radial Grid Type                 RadialGrid  ... OptM3 with GC (2021)
Angular Grid (max. ang.)         AngularGrid ... 1 (Lebedev-50)
Angular grid pruning method      GridPruning ... 4 (adaptive)
Weight generation scheme         WeightScheme... Becke
Basis function cutoff            BFCut       ... 1.0000e-10
Integration weight cutoff        WCut        ... 1.0000e-14
Angular grids for H and He will be reduced by one unit
Partially contracted basis set               ... on
Rotationally invariant grid construction     ... off

Total number of grid points                  ...    17778
Total number of batches                      ...      302
Average number of points per batch           ...       58
Average number of grid points per atom       ...      444

Memory available               ... 819.8 MB
Memory needed per perturbation ...  41.3 MB
Perturbations treated per batch... 3
Number of batches              ... 1
     CP-SCF ITERATION   0:   4.5127e-02 (   4.8 sec   0/  3 done)
     CP-SCF ITERATION   1:   1.6096e-03 (   4.9 sec   1/  3 done)
     CP-SCF ITERATION   2:   1.7159e-04 (   4.0 sec   3/  3 done)
                    *** THE CP-SCF HAS CONVERGED ***

Forming final perturbed densities           ... done
Transforming perturbed density to AO basis  ... done

 Raw HFC matrix (all values in MHz): 
 -----------------------------------
                -0.0725               0.0352              -0.1439
                 0.0353              -0.1203              -0.0727
                -0.1435              -0.0722               0.1750

 A(FC)          -0.0063              -0.0063              -0.0063
 A(SD)          -0.1315              -0.1343               0.2658
 A(ORB+DIA)      0.0018               0.0008              -0.0015    A(PC) =   0.0004
 A(ORB)          0.0018               0.0009              -0.0016    A(PC) =   0.0004
 A(DIA)         -0.0000              -0.0001               0.0000    A(PC) =  -0.0000
             ----------           ----------           ----------
 A(Tot)         -0.1360              -0.1398               0.2580    A(iso)=   -0.0059
 Orientation: 
  X           0.4975775            0.7651037            0.4086965
  Y           0.7653155           -0.6090046            0.2083400
  Z           0.4082998            0.2091165           -0.8885728

Notes:  (1) The A matrix conforms to the "SAI" spin Hamiltonian convention.
        (2) Tensor is right-handed.

 Raw EFG matrix (all values in a.u.**-3):
 -----------------------------------
            -0.1321       0.0432       0.0540
             0.0432       0.0299       0.2044
             0.0540       0.2044       0.1022

 V(El)       0.6364       0.4486      -1.0850
 V(Nuc)     -0.7771      -0.5930       1.3701
         ----------   ----------   ----------
 V(Tot)     -0.1407      -0.1444       0.2851 
 Orientation: 
  X      -0.4739349    0.8652572   -0.1634492
  Y       0.7227741    0.2762254   -0.6334802
  Z      -0.5029745   -0.4183652   -0.7562984

Note: Tensor is right-handed


 Quadrupole tensor eigenvalues (in MHz;Q= 0.0029 I=  1.0)
  e**2qQ            =     0.191445 MHz 
  e**2qQ/(4I*(2I-1))=     0.047861 MHz 
  eta               =     0.012934
  NOTE: the diagonal representation of the SH term I*Q*I = e**2qQ/(4I(2I-1))*[-(1-eta),-(1+eta),2]

 RHO(0)=      0.441551590 a.u.**-3

 -----------------------------------------------------------
 Nucleus   0V : A:ISTP=   51 I=  3.5 P=140.5173 MHz/au**3
                Q:ISTP=   51 I=  3.5 Q= -0.0430 barn     
 -----------------------------------------------------------
 Solving for nuclear perturbation:
Forming RHS of the CP-SCF equations         ... 
Calc. nucleus orbit integrals (SHARK)       ... done

------------------------------------------------------------------------------
                           ORCA CP-SCF CALCULATION
------------------------------------------------------------------------------

Input orbitals are from        ... input_109.gbw
Input Perturbation             ... input_109.pin.tmp
Wavefunction output            ... input_109.pout.tmp
Perturbation mode              ... Imaginary perturbation
Solver                         ... POPLE
Max. number of iterations      ... 64
Convergence tolerance          ... 1.000e-03
Integral handling              ... Direct
DFT GridXC                     ... 1
COSX GridX                     ... 1
COSX IntAccX                   ... 3.067
COSX Algorithm                 ... Auto
Number of perturbations        ... 3
Number of operators            ... 2
Orbital ranges used for CP-SCF:
 Operator 0:  Orbitals   0...160  to 161...680
 Operator 1:  Orbitals   0...159  to 160...680
Variables per perturbation     ... 167080
DFT calculation                         ... on
XC functional terms                     ... off
Hybrid DFT                              ... on
   Exchange mixing (SCF)                ...  0.200
   Exchange mixing (CP-SCF)             ...  0.200
   GGA exch. scaling(SCF)               ...  0.720
   GGA exch. scaling (CP-SCF)           ...  0.720
   GGA corr. scaling (SCF)              ...  0.810
   GGA corr. scaling (CP-SCF)           ...  0.810

CP-SCF GRID
-----------

General Integration Accuracy     IntAcc      ... 3.467
Radial Grid Type                 RadialGrid  ... OptM3 with GC (2021)
Angular Grid (max. ang.)         AngularGrid ... 1 (Lebedev-50)
Angular grid pruning method      GridPruning ... 4 (adaptive)
Weight generation scheme         WeightScheme... Becke
Basis function cutoff            BFCut       ... 1.0000e-10
Integration weight cutoff        WCut        ... 1.0000e-14
Angular grids for H and He will be reduced by one unit
Partially contracted basis set               ... off
Rotationally invariant grid construction     ... off

Total number of grid points                  ...    39373
Total number of batches                      ...      636
Average number of points per batch           ...       61
Average number of grid points per atom       ...      984

CP-SCF GRIDX
------------

General Integration Accuracy     IntAcc      ... 3.067
Radial Grid Type                 RadialGrid  ... OptM3 with GC (2021)
Angular Grid (max. ang.)         AngularGrid ... 1 (Lebedev-50)
Angular grid pruning method      GridPruning ... 4 (adaptive)
Weight generation scheme         WeightScheme... Becke
Basis function cutoff            BFCut       ... 1.0000e-10
Integration weight cutoff        WCut        ... 1.0000e-14
Angular grids for H and He will be reduced by one unit
Partially contracted basis set               ... on
Rotationally invariant grid construction     ... off

Total number of grid points                  ...    17778
Total number of batches                      ...      302
Average number of points per batch           ...       58
Average number of grid points per atom       ...      444

Memory available               ... 817.7 MB
Memory needed per perturbation ...  41.3 MB
Perturbations treated per batch... 3
Number of batches              ... 1
     CP-SCF ITERATION   0:   1.3031e+01 (   5.1 sec   0/  3 done)
     CP-SCF ITERATION   1:   1.8837e+00 (   4.9 sec   0/  3 done)
     CP-SCF ITERATION   2:   3.3833e-01 (   4.9 sec   0/  3 done)
     CP-SCF ITERATION   3:   3.9087e-02 (   4.9 sec   0/  3 done)
     CP-SCF ITERATION   4:   6.8662e-03 (   4.9 sec   0/  3 done)
     CP-SCF ITERATION   5:   1.9745e-03 (   5.0 sec   2/  3 done)
     CP-SCF ITERATION   6:   3.5236e-04 (   3.0 sec   3/  3 done)
                    *** THE CP-SCF HAS CONVERGED ***

Forming final perturbed densities           ... done
Transforming perturbed density to AO basis  ... done

 Raw HFC matrix (all values in MHz): 
 -----------------------------------
              -110.6143             -84.2486             -13.2193
               -84.3650            -354.5322             -44.5928
               -13.5948             -45.6383             -96.3834

 A(FC)        -175.2773            -175.2773            -175.2773
 A(SD)          97.9883              93.9048            -191.8931
 A(ORB+DIA)     -6.9357              -7.5145             -21.2479    A(PC) = -11.8994
 A(ORB)         -6.9353              -7.5150             -21.2477    A(PC) = -11.8993
 A(DIA)         -0.0004               0.0005              -0.0002    A(PC) =  -0.0000
             ----------           ----------           ----------
 A(Tot)        -84.2247             -88.8870            -388.4182    A(iso)= -187.1766
 Orientation: 
  X           0.9405856            0.1705073            0.2936428
  Y          -0.3143570            0.1103311            0.9428715
  Z           0.1283686           -0.9791600            0.1573760

Notes:  (1) The A matrix conforms to the "SAI" spin Hamiltonian convention.
        (2) Tensor is right-handed.

 Raw EFG matrix (all values in a.u.**-3):
 -----------------------------------
            -0.0193       0.0768       0.0554
             0.0768       0.1755       0.0819
             0.0554       0.0819      -0.1562

 V(El)       0.1875      -0.4743       0.2868
 V(Nuc)     -0.2291       0.2897      -0.0607
         ----------   ----------   ----------
 V(Tot)     -0.0416      -0.1845       0.2261 
 Orientation: 
  X      -0.9085721   -0.2435952    0.3393494
  Y       0.3836864   -0.1654375    0.9085236
  Z      -0.1651709    0.9556630    0.2437761

Note: Tensor is right-handed


 Quadrupole tensor eigenvalues (in MHz;Q=-0.0430 I=  3.5)
  e**2qQ            =    -2.284809 MHz 
  e**2qQ/(4I*(2I-1))=    -0.027200 MHz 
  eta               =     0.632022
  NOTE: the diagonal representation of the SH term I*Q*I = e**2qQ/(4I(2I-1))*[-(1-eta),-(1+eta),2]

 RHO(0)=   8115.203079965 a.u.**-3


--------------------------------------------------------------------------------
----------------------------------------------------------------------------
                           ORCA EULER ANGLE PROGRAM
----------------------------------------------------------------------------

Only g-tensor available        -->  using g-tensor as reference tensor

Reference tensor               ...  g

g-tensor ordering              ...  |g_min> --> |gx>
                                    |g_mid> --> |gy>
                                    |g_max> --> |gz>

A- and EFG-tensor ordering     ...  the axes |Ax>, |Qx>, |Ay>, etc. are assigned
                                    such that the Euler rotation is minimal. You
                                    can find the respective eigenvalues as Ax,
                                    EFGx, Ay, etc. in the tables below.
                                    The relation of |Ax>, |Ay>,  etc. to Amin, Amid, etc.
                                    (as printed in the ORCA EPR/NMR CALCULATION Output)
                                    is obtained in the detailed printout.

Euler rotation around          ...  z - y - z
   First rotation              -->  by alpha around z
   Second rotation             -->  by beta around y'
   Third rotation              -->  by gamma around z''
   Positive / Negative angle   -->  clockwise / counterclockwise rotation

Plot EFG-tensors                    (-)
Plot HFC-tensors                    (-)
Detailed Printout                   (-)

-------------------------------------------------------------------------
          Euler rotation of hyperfine tensor to g-tensor
-------------------------------------------------------------------------

-------------------------------------------------------------------
 Atom  |   Alpha    Beta    Gamma   |   Ax       Ay       Az 
       |          [degrees]         |           [MHz]         
-------------------------------------------------------------------
 25H      -29.3      9.9     55.4      -0.13     0.26    -0.13
 26H      -15.8     35.6     32.9      -0.08     0.15    -0.08
 27H      138.4      6.3   -113.6      -0.07     0.13    -0.07
 28H      118.0      4.8   -101.7      -0.07     0.15    -0.07
 29H      142.6     29.7   -126.5      -0.08     0.15    -0.08
 30H      118.4     15.0    -92.5      -0.13     0.26    -0.13
 34H     -163.0      9.7    167.6      -0.14     0.26    -0.14
 35H      -39.7     11.3     38.0      -0.08     0.18    -0.07
 36H       27.2     12.3    -34.1      -0.07     0.14    -0.07
 37H       15.8     23.7    -11.9      -0.07     0.14    -0.07
 38H      109.7     20.4   -113.9      -0.08     0.18    -0.08
 39H       43.6     22.8    -37.9      -0.14     0.26    -0.14
  0V       74.4      3.7    -81.4    -388.42   -88.89   -84.22
-------------------------------------------------------------------


-------------------------------------------------------------------------------
    Euler rotation of Electric Field Gradient (EFG) tensor to g-tensor
-------------------------------------------------------------------------------

-------------------------------------------------------------------
 Atom  |   Alpha    Beta    Gamma  |   EFGx     EFGy     EFGz
       |          [degrees]        |         [a.u.**-3]       
-------------------------------------------------------------------
 25H      172.0     38.3    150.2     -0.10     0.20    -0.10
 26H       33.7     41.1    -68.7     -0.04    -0.05     0.08
 27H       56.4      4.3    -72.9      0.11    -0.06    -0.05
 28H       49.3      3.2    -83.7     -1.64     3.27    -1.64
 29H     -146.9     32.9    111.5     -0.04    -0.04     0.08
 30H       -0.4     44.7    -35.7     -0.10     0.19    -0.09
 34H      -93.6     31.8    126.1      0.29    -0.14    -0.14
 35H      122.9     43.3    -86.6     -0.15    -0.14     0.29
 36H       92.9      7.2    -59.1      0.30    -0.15    -0.14
 37H       20.0      7.2    -59.4      0.28    -0.14    -0.14
 38H      -44.2     31.2     82.7     -0.15    -0.14     0.29
 39H      -88.0     44.2    121.8      0.29    -0.14    -0.14
  0V       56.8      8.1    -59.2      0.23    -0.18    -0.04
-------------------------------------------------------------------


Maximum memory used throughout the entire EPRNMR-calculation: 305.6 MB

Timings for individual modules:

Sum of individual times         ...     3721.713 sec (=  62.029 min)
GTO integral calculation        ...        1.480 sec (=   0.025 min)   0.0 %
Spin-Orbit-Coupling Matrices    ...       10.486 sec (=   0.175 min)   0.3 %
SCF iterations                  ...      219.439 sec (=   3.657 min)   5.9 %
EPR/NMR calculation             ...     3490.309 sec (=  58.172 min)  93.8 %
                             ****ORCA TERMINATED NORMALLY****
TOTAL RUN TIME: 0 days 1 hours 2 minutes 2 seconds 922 msec
