
                                 *****************
                                 * O   R   C   A *
                                 *****************

                                            #,                                       
                                            ###                                      
                                            ####                                     
                                            #####                                    
                                            ######                                   
                                           ########,                                 
                                     ,,################,,,,,                         
                               ,,#################################,,                 
                          ,,##########################################,,             
                       ,#########################################, ''#####,          
                    ,#############################################,,   '####,        
                  ,##################################################,,,,####,       
                ,###########''''           ''''###############################       
              ,#####''   ,,,,##########,,,,          '''####'''          '####       
            ,##' ,,,,###########################,,,                        '##       
           ' ,,###''''                  '''############,,,                           
         ,,##''                                '''############,,,,        ,,,,,,###''
      ,#''                                            '''#######################'''  
     '                                                          ''''####''''         
             ,#######,   #######,   ,#######,      ##                                
            ,#'     '#,  ##    ##  ,#'     '#,    #''#        ######   ,####,        
            ##       ##  ##   ,#'  ##            #'  '#       #        #'  '#        
            ##       ##  #######   ##           ,######,      #####,   #    #        
            '#,     ,#'  ##    ##  '#,     ,#' ,#      #,         ##   #,  ,#        
             '#######'   ##     ##  '#######'  #'      '#     #####' # '####'        



                  #######################################################
                  #                        -***-                        #
                  #          Department of theory and spectroscopy      #
                  #    Directorship and core code : Frank Neese         #
                  #        Max Planck Institute fuer Kohlenforschung    #
                  #                Kaiser Wilhelm Platz 1               #
                  #                 D-45470 Muelheim/Ruhr               #
                  #                      Germany                        #
                  #                                                     #
                  #                  All rights reserved                #
                  #                        -***-                        #
                  #######################################################


                         Program Version 5.0.4 -  RELEASE  -


 With contributions from (in alphabetic order):
   Daniel Aravena         : Magnetic Suceptibility
   Michael Atanasov       : Ab Initio Ligand Field Theory (pilot matlab implementation)
   Alexander A. Auer      : GIAO ZORA, VPT2 properties, NMR spectrum
   Ute Becker             : Parallelization
   Giovanni Bistoni       : ED, misc. LED, open-shell LED, HFLD
   Martin Brehm           : Molecular dynamics
   Dmytro Bykov           : SCF Hessian
   Vijay G. Chilkuri      : MRCI spin determinant printing, contributions to CSF-ICE
   Dipayan Datta          : RHF DLPNO-CCSD density
   Achintya Kumar Dutta   : EOM-CC, STEOM-CC
   Dmitry Ganyushin       : Spin-Orbit,Spin-Spin,Magnetic field MRCI
   Miquel Garcia          : C-PCM and meta-GGA Hessian, CC/C-PCM, Gaussian charge scheme
   Yang Guo               : DLPNO-NEVPT2, F12-NEVPT2, CIM, IAO-localization
   Andreas Hansen         : Spin unrestricted coupled pair/coupled cluster methods
   Benjamin Helmich-Paris : MC-RPA, TRAH-SCF, COSX integrals
   Lee Huntington         : MR-EOM, pCC
   Robert Izsak           : Overlap fitted RIJCOSX, COSX-SCS-MP3, EOM
   Marcus Kettner         : VPT2
   Christian Kollmar      : KDIIS, OOCD, Brueckner-CCSD(T), CCSD density, CASPT2, CASPT2-K
   Simone Kossmann        : Meta GGA functionals, TD-DFT gradient, OOMP2, MP2 Hessian
   Martin Krupicka        : Initial AUTO-CI
   Lucas Lang             : DCDCAS
   Marvin Lechner         : AUTO-CI (C++ implementation), FIC-MRCC
   Dagmar Lenk            : GEPOL surface, SMD
   Dimitrios Liakos       : Extrapolation schemes; Compound Job, initial MDCI parallelization
   Dimitrios Manganas     : Further ROCIS development; embedding schemes
   Dimitrios Pantazis     : SARC Basis sets
   Anastasios Papadopoulos: AUTO-CI, single reference methods and gradients
   Taras Petrenko         : DFT Hessian,TD-DFT gradient, ASA, ECA, R-Raman, ABS, FL, XAS/XES, NRVS
   Peter Pinski           : DLPNO-MP2, DLPNO-MP2 Gradient
   Christoph Reimann      : Effective Core Potentials
   Marius Retegan         : Local ZFS, SOC
   Christoph Riplinger    : Optimizer, TS searches, QM/MM, DLPNO-CCSD(T), (RO)-DLPNO pert. Triples
   Tobias Risthaus        : Range-separated hybrids, TD-DFT gradient, RPA, STAB
   Michael Roemelt        : Original ROCIS implementation
   Masaaki Saitow         : Open-shell DLPNO-CCSD energy and density
   Barbara Sandhoefer     : DKH picture change effects
   Avijit Sen             : IP-ROCIS
   Kantharuban Sivalingam : CASSCF convergence, NEVPT2, FIC-MRCI
   Bernardo de Souza      : ESD, SOC TD-DFT
   Georgi Stoychev        : AutoAux, RI-MP2 NMR, DLPNO-MP2 response
   Willem Van den Heuvel  : Paramagnetic NMR
   Boris Wezisla          : Elementary symmetry handling
   Frank Wennmohs         : Technical directorship


 We gratefully acknowledge several colleagues who have allowed us to
 interface, adapt or use parts of their codes:
   Stefan Grimme, W. Hujo, H. Kruse, P. Pracht,  : VdW corrections, initial TS optimization,
                  C. Bannwarth, S. Ehlert          DFT functionals, gCP, sTDA/sTD-DF
   Ed Valeev, F. Pavosevic, A. Kumar             : LibInt (2-el integral package), F12 methods
   Garnet Chan, S. Sharma, J. Yang, R. Olivares  : DMRG
   Ulf Ekstrom                                   : XCFun DFT Library
   Mihaly Kallay                                 : mrcc  (arbitrary order and MRCC methods)
   Jiri Pittner, Ondrej Demel                    : Mk-CCSD
   Frank Weinhold                                : gennbo (NPA and NBO analysis)
   Christopher J. Cramer and Donald G. Truhlar   : smd solvation model
   Lars Goerigk                                  : TD-DFT with DH, B97 family of functionals
   V. Asgeirsson, H. Jonsson                     : NEB implementation
   FAccTs GmbH                                   : IRC, NEB, NEB-TS, DLPNO-Multilevel, CI-OPT
                                                   MM, QMMM, 2- and 3-layer-ONIOM, Crystal-QMMM,
                                                   LR-CPCM, SF, NACMEs, symmetry and pop. for TD-DFT,
                                                   nearIR, NL-DFT gradient (VV10), updates on ESD,
                                                   ML-optimized integration grids
   S Lehtola, MJT Oliveira, MAL Marques          : LibXC Library
   Liviu Ungur et al                             : ANISO software


 Your calculation uses the libint2 library for the computation of 2-el integrals
 For citations please refer to: http://libint.valeyev.net

 Your ORCA version has been built with support for libXC version: 5.1.0
 For citations please refer to: https://tddft.org/programs/libxc/

 This ORCA versions uses:
   CBLAS   interface :  Fast vector & matrix operations
   LAPACKE interface :  Fast linear algebra routines
   SCALAPACK package :  Parallel linear algebra routines
   Shared memory     :  Shared parallel matrices
   BLAS/LAPACK       :  OpenBLAS 0.3.15  USE64BITINT DYNAMIC_ARCH NO_AFFINITY Prescott SINGLE_THREADED
        Core in use  :  Prescott
   Copyright (c) 2011-2014, The OpenBLAS Project


================================================================================

----- Orbital basis set information -----
Your calculation utilizes the basis: TZVP 

The basis set includes element-specific modifications.

Your calculation utilizes the basis: CP(PPP) 

----- AuxJ basis set information -----
Your calculation utilizes the auxiliary basis: def2/J
   F. Weigend, Phys. Chem. Chem. Phys. 8, 1057 (2006).

================================================================================
                                        WARNINGS
                       Please study these warnings very carefully!
================================================================================


WARNING: your system is open-shell and RHF/RKS was chosen
  ===> : WILL SWITCH to UHF/UKS


INFO   : the flag for use of the SHARK integral package has been found!

================================================================================
                                       INPUT FILE
================================================================================
NAME = input_49.inp
|  1> ! nofrozencore ReducedPop printbasis
|  2> ! B3LYP TZVP
|  3> 
|  4> %basis
|  5> newgto V "CP(PPP)" end
|  6> end
|  7> 
|  8> %pal
|  9> nprocs 6
| 10> end
| 11> 
| 12> % sym SymThresh 1e-2 end
| 13> * xyz -2 2 
| 14> V 1.1123270626205106 -0.03732837578311553 0.004681379008532662
| 15> S 0.5250293029120823 -2.020154841812731 1.3841420252521897
| 16> S 0.33198889112714536 -1.388903161546135 -1.9097741072350205
| 17> S 0.5623717775551758 1.2967769614563918 2.0025269809216955
| 18> S 0.19114925580486325 1.8972234495319893 -1.2295327375459293
| 19> O 2.693926055370905 0.0001224073364501192 -0.14229057662474623
| 20> C -0.019908528470334464 -0.1255216316326878 -3.09240511323782
| 21> C 0.2933890821596849 1.2136506371630582 -2.860597512562227
| 22> C 0.7693004895191653 -1.285834135462789 3.032797835303606
| 23> C -0.06056479061476402 0.050830945709213454 3.1513626403035713
| 24> S -0.013214206522998824 -0.5794628625368902 -4.845928286771847
| 25> S -0.15710326822993734 2.296685223087306 -4.2277509083768035
| 26> S 0.10024455160290947 0.5456394510462823 4.9286972382537195
| 27> S 0.08610970166311067 -2.3471711136436677 4.379926973912263
| 28> C -0.2420483341844005 1.0560151190251212 -5.482370885176678
| 29> C -0.12550413041772976 -1.0756395950946998 5.59100980495175
| 30> C -0.4491983519286295 1.3311624724609186 -6.806074048646058
| 31> C -0.4231439368841584 -1.3156877305877375 6.903938211478146
| 32> S -0.4829463676056178 0.04668242988902517 -8.045042905944083
| 33> S -0.6665459913249004 2.996032221660231 -7.395527143292179
| 34> S -0.6183447766839137 -2.9743112932269993 7.5363685084471586
| 35> S -0.6728228006840757 0.004079631082509862 8.069898597885222
| 36> C -2.4476379459687467 -0.33826433528714767 8.480029327241661
| 37> C -2.397592002296605 -2.8708257349418402 8.0311477856708
| 38> C -2.6940713698595755 -1.746758948726071 9.026372362572927
| 39> H -3.0371594467565273 -0.16216288142305707 7.577520474913952
| 40> H -2.7283626092226965 0.41228145827224894 9.223210782850755
| 41> H -3.750812547764182 -1.8196167129868834 9.319400114913384
| 42> H -2.0948194568953933 -1.8952380130112152 9.930171814306428
| 43> H -2.628808599135376 -3.8420207176822663 8.475820196850224
| 44> H -2.9995155765914667 -2.757409146624818 7.126711875204158
| 45> C 0.8239555132319385 3.098056074973082 -8.489847391774312
| 46> C 0.9837676179877332 0.5892686156680694 -9.035417093877925
| 47> C 0.8683741716026153 2.0176145354213437 -9.57252311378604
| 48> H 1.875062103854798 0.4789871260479876 -8.413591711044333
| 49> H 1.053623079688801 -0.12228584814250652 -9.862037347476138
| 50> H -0.023881669782809537 2.09679707804244 -10.201582734459347
| 51> H 1.7389703125116724 2.2128553663743076 -10.214279203098057
| 52> H 0.7839136572757671 4.090754347350211 -8.945237077798323
| 53> H 1.711157583614214 3.0490878223271545 -7.854533676047027
| 54> * 
| 55> 
| 56> % eprnmr
| 57> gtensor true
| 58> Nuclei = all H {aiso,adip,aorb,fgrad,rho}
| 59> Nuclei = all V {aiso,adip,aorb,fgrad,rho}
| 60> end
| 61> 
| 62>                          ****END OF INPUT****
================================================================================

------------------------------------------------------------------------------
                            SYMMETRY HANDLING SETUP
------------------------------------------------------------------------------

------------------
SYMMETRY DETECTION
------------------
The point group will now be determined using a tolerance of 1.0000e-02.
Splitting atom subsets according to nuclear charge, mass and basis set.
Splitting atom subsets according to distance from the molecule's center.
Identifying relative distance patterns of the atoms.
Splitting atom subsets according to atoms' relative distance patterns.
Bring atoms of each subset into input order.
The molecule is neither linear nor planar.
There is at least one atom subset not centered around the molecule's center.
The molecule does not have a center of inversion.
Analyzing the first atom subset for its symmetry.
The subset consists of a single off-center atom.
No testing is needed for point group C1.
This point group has been found:    C1
Largest non-degenerate subgroup:    C1


Mass-centered symmetry-perfected Cartesians (point group C1):

Atom          Symmetry-perfected Cartesians (x, y, z; au)
  0       2.096089743513   -0.069840310174    0.004705963442
  1       0.986257818598   -3.816839302061    2.611508797364
  2       0.621464307545   -2.623946504780   -3.613090601142
  3       1.056824868837    2.451253411011    3.780087008917
  4       0.355315967985    3.585932831549   -2.327620707466
  5       5.084878693497    0.000931413423   -0.273030782072
  6      -0.043525442727   -0.236501410589   -5.847939319971
  7       0.548521239775    2.294167423577   -5.409886438933
  8       1.447863463694   -2.429174272592    5.727016767459
  9      -0.120354643809    0.096756663599    5.951071778031
 10      -0.030875007595   -1.094326017893   -9.161617887435
 11      -0.302785927888    4.340806184539   -7.993431940083
 12       0.183530972758    1.031809227421    9.309747416500
 13       0.156819977428   -4.434810497157    8.272721906455
 14      -0.463308838969    1.996279465318  -10.364320098381
 15      -0.243072211354   -2.031964156451   10.561336782614
 16      -0.854765641143    2.516232609785  -12.865756559943
 17      -0.805529932129   -2.485589391491   13.042411904394
 18      -0.918540148336    0.088917104836  -15.207068388694
 19      -1.265493155456    5.662380484421  -13.979661477617
 20      -1.174406060462   -5.619933684148   14.237531964460
 21      -1.277354606140    0.008409482553   15.245757717705
 22      -4.631269169064   -0.638526857486   16.020792475294
 23      -4.536696041410   -5.424374320173   15.172529295152
 24      -5.096960850462   -3.300195937988   17.053231187245
 25      -5.745303355611   -0.305743337897   14.315297910955
 26      -5.161761901651    0.779799143308   17.425201894204
 27      -7.093912271139   -3.437877159171   17.606973388807
 28      -3.964538849731   -3.580780706108   18.761164631010
 29      -4.973632087052   -7.259666860191   16.012838371592
 30      -5.674166750378   -5.210048029210   13.463393118687
 31       1.551146490354    5.855177626310  -16.047627050053
 32       1.853147601228    1.114256400008  -17.078604373993
 33       1.635085589911    3.813439012845  -18.093587656500
 34       3.537450084191    0.905854586985  -15.903524697317
 35       1.985155292801   -0.230386665964  -18.640690270047
 36      -0.051033591699    3.963072332987  -19.282338061481
 37       3.280273869477    4.182390713505  -19.306330910076
 38       1.475478348703    7.731105494720  -16.908188840850
 39       3.227715428824    5.762641039553  -14.847058118204


------------------
SYMMETRY REDUCTION
------------------
ORCA supports only abelian point groups.
It is now checked, if the determined point group is supported:
Point Group ( C1    ) is          ... supported

The point group is C1 - hence turning off symmetry
If this is a round-off problem, please increase the symmetry
        detection tolerance (%method SymThresh)

Storing the symmetry object:
Symmetry file                     ... input_49.sym.tmp
Writing symmetry information      ... done

                       ****************************
                       * Single Point Calculation *
                       ****************************

---------------------------------
CARTESIAN COORDINATES (ANGSTROEM)
---------------------------------
  V      1.109203   -0.036958    0.002490
  S      0.521905   -2.019784    1.381951
  S      0.328865   -1.388533   -1.911965
  S      0.559248    1.297147    2.000336
  S      0.188025    1.897594   -1.231724
  O      2.690802    0.000493   -0.144482
  C     -0.023033   -0.125151   -3.094596
  C      0.290265    1.214021   -2.862789
  C      0.766176   -1.285464    3.030607
  C     -0.063689    0.051201    3.149172
  S     -0.016338   -0.579092   -4.848119
  S     -0.160227    2.297056   -4.229942
  S      0.097120    0.546010    4.926506
  S      0.082986   -2.346801    4.377736
  C     -0.245172    1.056386   -5.484562
  C     -0.128628   -1.075269    5.588819
  C     -0.452322    1.331533   -6.808265
  C     -0.426268   -1.315317    6.901747
  S     -0.486071    0.047053   -8.047234
  S     -0.669670    2.996403   -7.397718
  S     -0.621469   -2.973941    7.534177
  S     -0.675947    0.004450    8.067708
  C     -2.450762   -0.337894    8.477838
  C     -2.400716   -2.870455    8.028957
  C     -2.697196   -1.746388    9.024181
  H     -3.040284   -0.161792    7.575329
  H     -2.731487    0.412652    9.221020
  H     -3.753937   -1.819246    9.317209
  H     -2.097944   -1.894868    9.927981
  H     -2.631933   -3.841650    8.473629
  H     -3.002640   -2.757039    7.124521
  C      0.820831    3.098427   -8.492038
  C      0.980643    0.589639   -9.037608
  C      0.865250    2.017985   -9.574714
  H      1.871938    0.479358   -8.415783
  H      1.050499   -0.121915   -9.864228
  H     -0.027006    2.097168  -10.203774
  H      1.735846    2.213226  -10.216470
  H      0.780790    4.091125   -8.947428
  H      1.708033    3.049458   -7.856725

----------------------------
CARTESIAN COORDINATES (A.U.)
----------------------------
  NO LB      ZA    FRAG     MASS         X           Y           Z
   0 V    23.0000    0    50.940    2.096090   -0.069840    0.004706
   1 S    16.0000    0    32.060    0.986258   -3.816839    2.611509
   2 S    16.0000    0    32.060    0.621464   -2.623947   -3.613091
   3 S    16.0000    0    32.060    1.056825    2.451253    3.780087
   4 S    16.0000    0    32.060    0.355316    3.585933   -2.327621
   5 O     8.0000    0    15.999    5.084879    0.000931   -0.273031
   6 C     6.0000    0    12.011   -0.043525   -0.236501   -5.847939
   7 C     6.0000    0    12.011    0.548521    2.294167   -5.409886
   8 C     6.0000    0    12.011    1.447863   -2.429174    5.727017
   9 C     6.0000    0    12.011   -0.120355    0.096757    5.951072
  10 S    16.0000    0    32.060   -0.030875   -1.094326   -9.161618
  11 S    16.0000    0    32.060   -0.302786    4.340806   -7.993432
  12 S    16.0000    0    32.060    0.183531    1.031809    9.309747
  13 S    16.0000    0    32.060    0.156820   -4.434810    8.272722
  14 C     6.0000    0    12.011   -0.463309    1.996279  -10.364320
  15 C     6.0000    0    12.011   -0.243072   -2.031964   10.561337
  16 C     6.0000    0    12.011   -0.854766    2.516233  -12.865757
  17 C     6.0000    0    12.011   -0.805530   -2.485589   13.042412
  18 S    16.0000    0    32.060   -0.918540    0.088917  -15.207068
  19 S    16.0000    0    32.060   -1.265493    5.662380  -13.979661
  20 S    16.0000    0    32.060   -1.174406   -5.619934   14.237532
  21 S    16.0000    0    32.060   -1.277355    0.008409   15.245758
  22 C     6.0000    0    12.011   -4.631269   -0.638527   16.020792
  23 C     6.0000    0    12.011   -4.536696   -5.424374   15.172529
  24 C     6.0000    0    12.011   -5.096961   -3.300196   17.053231
  25 H     1.0000    0     1.008   -5.745303   -0.305743   14.315298
  26 H     1.0000    0     1.008   -5.161762    0.779799   17.425202
  27 H     1.0000    0     1.008   -7.093912   -3.437877   17.606973
  28 H     1.0000    0     1.008   -3.964539   -3.580781   18.761165
  29 H     1.0000    0     1.008   -4.973632   -7.259667   16.012838
  30 H     1.0000    0     1.008   -5.674167   -5.210048   13.463393
  31 C     6.0000    0    12.011    1.551146    5.855178  -16.047627
  32 C     6.0000    0    12.011    1.853148    1.114256  -17.078604
  33 C     6.0000    0    12.011    1.635086    3.813439  -18.093588
  34 H     1.0000    0     1.008    3.537450    0.905855  -15.903525
  35 H     1.0000    0     1.008    1.985155   -0.230387  -18.640690
  36 H     1.0000    0     1.008   -0.051034    3.963072  -19.282338
  37 H     1.0000    0     1.008    3.280274    4.182391  -19.306331
  38 H     1.0000    0     1.008    1.475478    7.731105  -16.908189
  39 H     1.0000    0     1.008    3.227715    5.762641  -14.847058

--------------------------------
INTERNAL COORDINATES (ANGSTROEM)
--------------------------------
 V      0   0   0     0.000000000000     0.00000000     0.00000000
 S      1   0   0     2.485846159255     0.00000000     0.00000000
 S      1   2   0     2.469984184607    85.35420418     0.00000000
 S      1   2   3     2.464482687199    85.94105859   149.85788216
 S      1   2   3     2.472719919866   144.39128808    75.80504047
 O      1   2   3     1.588854521587   107.77686053   255.91637296
 C      3   1   2     1.765950390131   100.98467652   158.54105332
 C      7   3   1     1.394730268571   122.06283522     6.64987703
 C      2   1   3     1.821252671212    98.57140635   187.69456894
 C      9   2   1     1.577785643039   109.81954270    52.96334339
 S      7   3   1     1.811339552702   117.92291215   156.77257932
 S      8   7   3     1.801392705591   113.26335945   179.55085532
 S     10   9   2     1.851921535748   104.64341117   172.50618773
 S      9   2   1     1.846061415542   112.28011588   167.83412754
 C     12   8   7     1.766507644345    97.39975371   339.62778135
 C     13  10   9     1.765832990092    95.94360257   317.41927723
 C     15  12   8     1.367774565099   123.59652037   185.62398349
 C     16  13  10     1.367477079300   123.30569352   196.06961776
 S     17  15  12     1.784957068862   121.99561993   178.29016003
 S     17  15  12     1.779462342658   121.82242550   359.60051298
 S     18  16  13     1.785806140354   121.79262619   180.95535721
 S     18  16  13     1.778648095220   121.98409854     2.32135257
 C     22  18  16     1.853476572931    98.18794215   116.74802063
 C     21  18  16     1.849658477610    98.50607637   243.24308000
 C     24  21  18     1.530326146197   113.66696968   302.75586736
 H     23  22  18     1.092277231509   107.71009344   294.40393600
 H     23  22  18     1.092906217729   105.63955079   178.93199617
 H     25  24  21     1.099033864143   108.11838082   184.58564691
 H     25  24  21     1.094532930832   109.34741804   301.09811272
 H     24  21  18     1.092892658232   105.22619547   181.95191987
 H     24  21  18     1.092327619324   108.32422376    66.39571757
 C     20  17  15     1.851901835403    98.56786925   117.08147136
 C     19  17  15     1.851078257843    98.36372963   243.09587014
 C     32  20  17     1.530200528243   113.73836480    57.24430060
 H     33  19  17     1.092352815818   108.20138164    65.92903727
 H     33  19  17     1.092927529234   105.33528483   181.48903820
 H     34  32  20     1.094580452915   109.38320269    58.89503215
 H     34  32  20     1.099048452438   108.10191933   175.41851469
 H     32  20  17     1.092901174099   105.47246497   178.29017681
 H     32  20  17     1.092313563428   107.91204898   293.79560770

---------------------------
INTERNAL COORDINATES (A.U.)
---------------------------
 V      0   0   0     0.000000000000     0.00000000     0.00000000
 S      1   0   0     4.697568452051     0.00000000     0.00000000
 S      1   2   0     4.667593664024    85.35420418     0.00000000
 S      1   2   3     4.657197340597    85.94105859   149.85788216
 S      1   2   3     4.672763454438   144.39128808    75.80504047
 O      1   2   3     3.002499912442   107.77686053   255.91637296
 C      3   1   2     3.337162603440   100.98467652   158.54105332
 C      7   3   1     2.635658238290   122.06283522     6.64987703
 C      2   1   3     3.441668769263    98.57140635   187.69456894
 C      9   2   1     2.981582763377   109.81954270    52.96334339
 S      7   3   1     3.422935690146   117.92291215   156.77257932
 S      8   7   3     3.404138873210   113.26335945   179.55085532
 S     10   9   2     3.499624524075   104.64341117   172.50618773
 S      9   2   1     3.488550501774   112.28011588   167.83412754
 C     12   8   7     3.338215661290    97.39975371   339.62778135
 C     13  10   9     3.336940749516    95.94360257   317.41927723
 C     15  12   8     2.584719340981   123.59652037   185.62398349
 C     16  13  10     2.584157174292   123.30569352   196.06961776
 S     17  15  12     3.373080020957   121.99561993   178.29016003
 S     17  15  12     3.362696493250   121.82242550   359.60051298
 S     18  16  13     3.374684533543   121.79262619   180.95535721
 S     18  16  13     3.361157788586   121.98409854     2.32135257
 C     22  18  16     3.502563118478    98.18794215   116.74802063
 C     21  18  16     3.495347963968    98.50607637   243.24308000
 C     24  21  18     2.891897311891   113.66696968   302.75586736
 H     23  22  18     2.064104829871   107.71009344   294.40393600
 H     23  22  18     2.065293441567   105.63955079   178.93199617
 H     25  24  21     2.076873015136   108.11838082   184.58564691
 H     25  24  21     2.068367483831   109.34741804   301.09811272
 H     24  21  18     2.065267817832   105.22619547   181.95191987
 H     24  21  18     2.064200049041   108.32422376    66.39571757
 C     20  17  15     3.499587295818    98.56786925   117.08147136
 C     19  17  15     3.498030959779    98.36372963   243.09587014
 C     32  20  17     2.891659928360   113.73836480    57.24430060
 H     33  19  17     2.064247663514   108.20138164    65.92903727
 H     33  19  17     2.065333714475   105.33528483   181.48903820
 H     34  32  20     2.068457287553   109.38320269    58.89503215
 H     34  32  20     2.076900583017   108.10191933   175.41851469
 H     32  20  17     2.065283910487   105.47246497   178.29017681
 H     32  20  17     2.064173487247   107.91204898   293.79560770

---------------------
BASIS SET INFORMATION
---------------------
There are 5 groups of distinct atoms

 Group   1 Type V   : 17s11p5d1f contracted to 17s7p3d1f pattern {11111111111111111/3311111/311/1}
 Group   2 Type S   : 14s9p1d contracted to 5s4p1d pattern {73211/6111/1}
 Group   3 Type O   : 11s6p1d contracted to 5s3p1d pattern {62111/411/1}
 Group   4 Type C   : 11s6p1d contracted to 5s3p1d pattern {62111/411/1}
 Group   5 Type H   : 5s1p contracted to 3s1p pattern {311/1}

Atom   0V    basis set group =>   1
Atom   1S    basis set group =>   2
Atom   2S    basis set group =>   2
Atom   3S    basis set group =>   2
Atom   4S    basis set group =>   2
Atom   5O    basis set group =>   3
Atom   6C    basis set group =>   4
Atom   7C    basis set group =>   4
Atom   8C    basis set group =>   4
Atom   9C    basis set group =>   4
Atom  10S    basis set group =>   2
Atom  11S    basis set group =>   2
Atom  12S    basis set group =>   2
Atom  13S    basis set group =>   2
Atom  14C    basis set group =>   4
Atom  15C    basis set group =>   4
Atom  16C    basis set group =>   4
Atom  17C    basis set group =>   4
Atom  18S    basis set group =>   2
Atom  19S    basis set group =>   2
Atom  20S    basis set group =>   2
Atom  21S    basis set group =>   2
Atom  22C    basis set group =>   4
Atom  23C    basis set group =>   4
Atom  24C    basis set group =>   4
Atom  25H    basis set group =>   5
Atom  26H    basis set group =>   5
Atom  27H    basis set group =>   5
Atom  28H    basis set group =>   5
Atom  29H    basis set group =>   5
Atom  30H    basis set group =>   5
Atom  31C    basis set group =>   4
Atom  32C    basis set group =>   4
Atom  33C    basis set group =>   4
Atom  34H    basis set group =>   5
Atom  35H    basis set group =>   5
Atom  36H    basis set group =>   5
Atom  37H    basis set group =>   5
Atom  38H    basis set group =>   5
Atom  39H    basis set group =>   5

-------------------------
BASIS SET IN INPUT FORMAT
-------------------------

 # Basis set for element : H 
 NewGTO H 
 S 3 
   1      34.0613410000      0.0254393168
   2       5.1235746000      0.1900859340
   3       1.1646626000      0.8524411390
 S 1 
   1       0.3272304100      1.0000000000
 S 1 
   1       0.1030724100      1.0000000000
 P 1 
   1       0.8000000000      1.0000000000
  end;

 # Basis set for element : C 
 NewGTO C 
 S 6 
   1   13575.3496820000      0.0006064601
   2    2035.2333680000      0.0046978985
   3     463.2256235900      0.0243324735
   4     131.2001959800      0.0973999560
   5      42.8530158900      0.3019558443
   6      15.5841857700      0.6623361013
 S 2 
   1       6.2067138500      0.6559530795
   2       2.5764896500      0.3758563390
 S 1 
   1       0.5769633900      1.0000000000
 S 1 
   1       0.2297283100      1.0000000000
 S 1 
   1       0.0951644400      1.0000000000
 P 4 
   1      34.6972322400      0.0113272290
   2       7.9582622800      0.0761696612
   3       2.3780826900      0.3019225154
   4       0.8143320800      0.7278502776
 P 1 
   1       0.2888754700      1.0000000000
 P 1 
   1       0.1005682400      1.0000000000
 D 1 
   1       0.8000000000      1.0000000000
  end;

 # Basis set for element : O 
 NewGTO O 
 S 6 
   1   27032.3826310000      0.0005722654
   2    4052.3871392000      0.0044353333
   3     922.3272271000      0.0230201034
   4     261.2407098900      0.0928224938
   5      85.3546413500      0.2937849971
   6      31.0350352400      0.6740160462
 S 2 
   1      12.2608607300      0.6383993750
   2       4.9987076000      0.3953458663
 S 1 
   1       1.1703108200      1.0000000000
 S 1 
   1       0.4647474100      1.0000000000
 S 1 
   1       0.1850453600      1.0000000000
 P 4 
   1      63.2749548000      0.0120183316
   2      14.6270493800      0.0830054304
   3       4.4501223500      0.3199174388
   4       1.5275799600      0.7071554258
 P 1 
   1       0.5293511800      1.0000000000
 P 1 
   1       0.1747842100      1.0000000000
 D 1 
   1       1.2000000000      1.0000000000
  end;

 # Basis set for element : S 
 NewGTO S 
 S 7 
   1   60700.9281040000      0.0005238013
   2    9102.6106854000      0.0040506304
   3    2071.4166009000      0.0208270003
   4     586.0247682100      0.0814968475
   5     190.5539502100      0.2374911358
   6      67.6303842600      0.4472617145
   7      25.1273069100      0.3489191913
 S 3 
   1     112.5746301000      0.1004556993
   2      34.7955542200      0.4339117282
   3       6.5115556200     -1.2084330582
 S 2 
   1       3.2399032300      0.6749812922
   2       1.5477160900      0.3470879597
 S 1 
   1       0.4054103000      1.0000000000
 S 1 
   1       0.1455065100      1.0000000000
 P 6 
   1     564.3671602700      0.0025564845
   2     133.4262437900      0.0202874255
   3      42.4682711900      0.0927670112
   4      15.6165275800      0.2650208365
   5       6.1093988500      0.4486298663
   6       2.4404160200      0.3596369916
 P 1 
   1       0.8388220100      1.0000000000
 P 1 
   1       0.3128874700      1.0000000000
 P 1 
   1       0.1077010900      1.0000000000
 D 1 
   1       0.5500000000      1.0000000000
  end;

 # Basis set for element : V 
 NewGTO V 
 S 1 
   1  4239814.9912500000      1.0000000000
 S 1 
   1  1695925.9965000001      1.0000000000
 S 1 
   1  678370.3986000001      1.0000000000
 S 1 
   1  271348.1594400000      1.0000000000
 S 1 
   1   40672.0050780000      1.0000000000
 S 1 
   1    9257.0761385000      1.0000000000
 S 1 
   1    2622.7328773000      1.0000000000
 S 1 
   1     858.5948018500      1.0000000000
 S 1 
   1     314.1941865000      1.0000000000
 S 1 
   1     124.4786212700      1.0000000000
 S 1 
   1      50.4693993090      1.0000000000
 S 1 
   1      12.5138469110      1.0000000000
 S 1 
   1       5.3447758082      1.0000000000
 S 1 
   1       1.5755631295      1.0000000000
 S 1 
   1       0.6306903307      1.0000000000
 S 1 
   1       0.0879544416      1.0000000000
 S 1 
   1       0.0342969197      1.0000000000
 P 3 
   1    1450.0319327000     -0.0222847647
   2     343.7504988400     -0.1817959329
   3     110.8252170800     -0.8607412073
 P 3 
   1      41.8224645460     -0.2522537814
   2      17.0880737100     -0.4620379520
   3       7.2613218939     -0.3990010670
 P 1 
   1       2.9458145262      1.0000000000
 P 1 
   1       1.1650209680      1.0000000000
 P 1 
   1       0.4339937839      1.0000000000
 D 3 
   1      27.3603358640      0.0575501019
   2       7.4542765527      0.3023798347
   3       2.4632270217      0.7724212088
 D 1 
   1       0.8249954244      1.0000000000
 D 1 
   1       0.2526297057      1.0000000000
 P 1 
   1       0.1112480000      1.0000000000
 P 1 
   1       0.0363780000      1.0000000000
 F 1 
   1       1.8000000000      1.0000000000
  end;

---------------------------------
AUXILIARY/J BASIS SET INFORMATION
---------------------------------
There are 5 groups of distinct atoms

 Group   1 Type V   : 19s5p5d3f3g contracted to 8s5p5d2f3g pattern {121111111/11111/11111/21/111}
 Group   2 Type S   : 14s5p5d2f1g contracted to 8s4p3d1f1g pattern {71111111/2111/311/2/1}
 Group   3 Type O   : 12s5p4d2f1g contracted to 6s4p3d1f1g pattern {711111/2111/211/2/1}
 Group   4 Type C   : 12s5p4d2f1g contracted to 6s4p3d1f1g pattern {711111/2111/211/2/1}
 Group   5 Type H   : 5s2p1d contracted to 3s1p1d pattern {311/2/1}

Atom   0V    basis set group =>   1
Atom   1S    basis set group =>   2
Atom   2S    basis set group =>   2
Atom   3S    basis set group =>   2
Atom   4S    basis set group =>   2
Atom   5O    basis set group =>   3
Atom   6C    basis set group =>   4
Atom   7C    basis set group =>   4
Atom   8C    basis set group =>   4
Atom   9C    basis set group =>   4
Atom  10S    basis set group =>   2
Atom  11S    basis set group =>   2
Atom  12S    basis set group =>   2
Atom  13S    basis set group =>   2
Atom  14C    basis set group =>   4
Atom  15C    basis set group =>   4
Atom  16C    basis set group =>   4
Atom  17C    basis set group =>   4
Atom  18S    basis set group =>   2
Atom  19S    basis set group =>   2
Atom  20S    basis set group =>   2
Atom  21S    basis set group =>   2
Atom  22C    basis set group =>   4
Atom  23C    basis set group =>   4
Atom  24C    basis set group =>   4
Atom  25H    basis set group =>   5
Atom  26H    basis set group =>   5
Atom  27H    basis set group =>   5
Atom  28H    basis set group =>   5
Atom  29H    basis set group =>   5
Atom  30H    basis set group =>   5
Atom  31C    basis set group =>   4
Atom  32C    basis set group =>   4
Atom  33C    basis set group =>   4
Atom  34H    basis set group =>   5
Atom  35H    basis set group =>   5
Atom  36H    basis set group =>   5
Atom  37H    basis set group =>   5
Atom  38H    basis set group =>   5
Atom  39H    basis set group =>   5

-------------------------------------
AUXILIARY/J BASIS SET IN INPUT FORMAT
-------------------------------------

 # Auxiliary/J basis set for element : H 
 NewAuxJGTO H 
 S 3 
   1      15.6752927000      0.1007184237
   2       3.6063578000      0.3404257499
   3       1.2080016000      0.6491996172
 S 1 
   1       0.4726794000      1.0000000000
 S 1 
   1       0.2018100000      1.0000000000
 P 2 
   1       2.0281365000      0.5596620919
   2       0.5358730000      0.5596620919
 D 1 
   1       2.2165124000      1.0000000000
  end;

 # Auxiliary/J basis set for element : C 
 NewAuxJGTO C 
 S 7 
   1    1861.0916331000      0.0134602335
   2     642.9939764000      0.0299160374
   3     235.1105725000      0.1008649584
   4      90.7028894000      0.2370970548
   5      36.7794552000      0.3924037254
   6      15.6046273000      0.3195862154
   7       6.8907294000      0.0530104441
 S 1 
   1       3.1478850000     -1.0000000000
 S 1 
   1       1.4777287000      1.0000000000
 S 1 
   1       0.7076466000      1.0000000000
 S 1 
   1       0.3430122000      1.0000000000
 S 1 
   1       0.1669453000      1.0000000000
 P 2 
   1      13.5472892000     -0.6769313712
   2       5.4669419000     -0.3779500978
 P 1 
   1       2.1751721000      1.0000000000
 P 1 
   1       0.8582194000      1.0000000000
 P 1 
   1       0.3376720000      1.0000000000
 D 2 
   1       5.9287253000     -0.3533329857
   2       1.9809209000     -0.7456525731
 D 1 
   1       0.8055417000     -1.0000000000
 D 1 
   1       0.3531244000     -1.0000000000
 F 2 
   1       1.6755626000      0.6311076882
   2       0.5997536000      0.4968166032
 G 1 
   1       1.0024600000     -1.0000000000
  end;

 # Auxiliary/J basis set for element : O 
 NewAuxJGTO O 
 S 7 
   1    2876.8216605000      0.0168151159
   2    1004.7443032000      0.0340137548
   3     369.7579954000      0.1194951309
   4     142.9442404000      0.2664627624
   5      57.8366425000      0.4202764046
   6      24.3864983000      0.2765077335
   7      10.6622662000      0.0057008815
 S 1 
   1       4.8070437000     -1.0000000000
 S 1 
   1       2.2210770000      1.0000000000
 S 1 
   1       1.0447795000      1.0000000000
 S 1 
   1       0.4968425000      1.0000000000
 S 1 
   1       0.2371384000      1.0000000000
 P 2 
   1      64.2613382000     -0.2731534179
   2      16.3006076000     -0.8168011598
 P 1 
   1       4.3550542000      1.0000000000
 P 1 
   1       1.2019554000      1.0000000000
 P 1 
   1       0.3354196000      1.0000000000
 D 2 
   1       9.2146611000     -0.4661230638
   2       2.8435251000     -0.6600908911
 D 1 
   1       0.9955759000     -1.0000000000
 D 1 
   1       0.3649441000     -1.0000000000
 F 2 
   1       2.6420115000      0.5931563945
   2       0.7345613000      0.5931563945
 G 1 
   1       1.3931000000     -1.0000000000
  end;

 # Auxiliary/J basis set for element : S 
 NewAuxJGTO S 
 S 7 
   1    7399.0303145000      0.0295137551
   2    2710.1675859000      0.0559686311
   3    1034.3279062000      0.1764696370
   4     410.4645411000      0.3577969368
   5     168.9762502000      0.4299293578
   6      71.9687889000      0.1259148089
   7      31.6172683000     -0.0646025788
 S 1 
   1      14.2796836000      1.0000000000
 S 1 
   1       6.6060948000      1.0000000000
 S 1 
   1       3.1181477000      1.0000000000
 S 1 
   1       1.4954039000     -1.0000000000
 S 1 
   1       0.7254779000      1.0000000000
 S 1 
   1       0.3544216000      1.0000000000
 S 1 
   1       0.1735525000      1.0000000000
 P 2 
   1      12.6998799000      1.4059102813
   2       4.4295784000     -1.2124994202
 P 1 
   1       1.5232889000      1.0000000000
 P 1 
   1       0.5194667000     -1.0000000000
 P 1 
   1       0.1766547000     -1.0000000000
 D 3 
   1      16.8546461000      1.0295742104
   2       5.0810461000     -0.7461553923
   3       1.5102323000      0.8357028005
 D 1 
   1       0.4451331000      1.0000000000
 D 1 
   1       0.1308362000      1.0000000000
 F 2 
   1       1.0809860000      0.5572698934
   2       0.4161474000      0.5572698934
 G 1 
   1       0.6707100000     -1.0000000000
  end;

 # Auxiliary/J basis set for element : V 
 NewAuxJGTO V 
 S 12 
   1   11942.0842430000      0.0459866720
   2    2430.7110193000      0.1744615821
   3     841.0764301000      0.2900402792
   4     494.7508273000      0.1411212903
   5     291.0298903000      0.2660697186
   6     171.1940483000      0.0446365706
   7      59.2366916000     -0.0408204801
   8      34.8451117000      0.1394665381
   9      20.4971240000      0.2164746715
  10      12.0571314000      0.0864266611
  11       7.0924300000     -0.0568501658
  12       4.1720176000     -0.0126212852
 S 1 
   1       2.4541279000      1.0000000000
 S 1 
   1       1.4436046000      1.0000000000
 S 1 
   1       0.8491792000      1.0000000000
 S 1 
   1       0.2938336000      1.0000000000
 S 1 
   1       0.1728433000      1.0000000000
 S 1 
   1       0.1016725000      1.0000000000
 S 1 
   1       0.0598074000      1.0000000000
 P 1 
   1      16.7130979000     -1.0000000000
 P 1 
   1       4.7454037000     -1.0000000000
 P 1 
   1       1.3889998000      1.0000000000
 P 1 
   1       0.4142440000     -1.0000000000
 P 1 
   1       0.1243234000      1.0000000000
 D 1 
   1       7.7143225000      1.0000000000
 D 1 
   1       3.1170731000      1.0000000000
 D 1 
   1       1.2767950000     -1.0000000000
 D 1 
   1       0.5273386000      1.0000000000
 D 1 
   1       0.2184050000      1.0000000000
 F 2 
   1       3.1309344000     -1.0825667766
   2       1.0419780000      0.1809223232
 F 1 
   1       0.3559044000      1.0000000000
 G 1 
   1       8.7130110000      1.0000000000
 G 1 
   1       2.7493872000      1.0000000000
 G 1 
   1       0.8775089000      1.0000000000
  end;



           ************************************************************
           *        Program running with 6 parallel MPI-processes     *
           *              working on a common directory               *
           ************************************************************
------------------------------------------------------------------------------
                           ORCA GTO INTEGRAL CALCULATION
                           -- RI-GTO INTEGRALS CHOSEN --
------------------------------------------------------------------------------
------------------------------------------------------------------------------
                   ___                                                        
                  /   \      - P O W E R E D   B Y -                         
                 /     \                                                     
                 |  |  |   _    _      __       _____    __    __             
                 |  |  |  | |  | |    /  \     |  _  \  |  |  /  |          
                  \  \/   | |  | |   /    \    | | | |  |  | /  /          
                 / \  \   | |__| |  /  /\  \   | |_| |  |  |/  /          
                |  |  |   |  __  | /  /__\  \  |    /   |      \           
                |  |  |   | |  | | |   __   |  |    \   |  |\   \          
                \     /   | |  | | |  |  |  |  | |\  \  |  | \   \       
                 \___/    |_|  |_| |__|  |__|  |_| \__\ |__|  \__/        
                                                                              
                      - O R C A' S   B I G   F R I E N D -                    
                                      &                                       
                       - I N T E G R A L  F E E D E R -                       
                                                                              
 v1 FN, 2020, v2 2021                                                         
------------------------------------------------------------------------------


Reading SHARK input file input_49.SHARKINP.tmp ... ok
----------------------
SHARK INTEGRAL PACKAGE
----------------------

Number of atoms                             ...     40
Number of basis functions                   ...    681
Number of shells                            ...    331
Maximum angular momentum                    ...      3
Integral batch strategy                     ... SHARK/LIBINT Hybrid
RI-J (if used) integral strategy            ... SPLIT-RIJ (Revised 2003 algorithm where possible)
Printlevel                                  ...      1
Contraction scheme used                     ... SEGMENTED contraction
Coulomb Range Separation                    ... NOT USED
Exchange Range Separation                   ... NOT USED
Finite Nucleus Model                        ... NOT USED
Auxiliary Coulomb fitting basis             ... AVAILABLE
   # of basis functions in Aux-J            ...   1568
   # of shells in Aux-J                     ...    512
   Maximum angular momentum in Aux-J        ...      4
Auxiliary J/K fitting basis                 ... NOT available
Auxiliary Correlation fitting basis         ... NOT available
Auxiliary 'external' fitting basis          ... NOT available
Integral threshold                          ...     1.000000e-10
Primitive cut-off                           ...     1.000000e-11
Primitive pair pre-selection threshold      ...     1.000000e-11

Calculating pre-screening integrals         ... done (  0.1 sec) Dimension = 331
Organizing shell pair data                  ... done (  0.1 sec)
Shell pair information
Total number of shell pairs                 ...     54946
Shell pairs after pre-screening             ...     22697
Total number of primitive shell pairs       ...    221635
Primitive shell pairs kept                  ...     55336
          la=0 lb=0:   6406 shell pairs
          la=1 lb=0:   9091 shell pairs
          la=1 lb=1:   3202 shell pairs
          la=2 lb=0:   2131 shell pairs
          la=2 lb=1:   1545 shell pairs
          la=2 lb=2:    196 shell pairs
          la=3 lb=0:     57 shell pairs
          la=3 lb=1:     56 shell pairs
          la=3 lb=2:     12 shell pairs
          la=3 lb=3:      1 shell pairs

Calculating one electron integrals          ... done (  0.0 sec)
Calculating RI/J V-Matrix + Cholesky decomp.... done (  0.2 sec)
Calculating Nuclear repulsion               ... done (  0.0 sec) ENN=   5053.736851709415 Eh

SHARK setup successfully completed in   0.7 seconds

Maximum memory used throughout the entire GTOINT-calculation: 41.8 MB


           ************************************************************
           *        Program running with 6 parallel MPI-processes     *
           *              working on a common directory               *
           ************************************************************
-------------------------------------------------------------------------------
                                 ORCA SCF
-------------------------------------------------------------------------------

------------
SCF SETTINGS
------------
Hamiltonian:
 Density Functional     Method          .... DFT(GTOs)
 Exchange Functional    Exchange        .... B88
   X-Alpha parameter    XAlpha          ....  0.666667
   Becke's b parameter  XBeta           ....  0.004200
 Correlation Functional Correlation     .... LYP
 LDA part of GGA corr.  LDAOpt          .... VWN-5
 Gradients option       PostSCFGGA      .... off
 Hybrid DFT is turned on
   Fraction HF Exchange ScalHFX         ....  0.200000
   Scaling of DF-GGA-X  ScalDFX         ....  0.720000
   Scaling of DF-GGA-C  ScalDFC         ....  0.810000
   Scaling of DF-LDA-C  ScalLDAC        ....  1.000000
   Perturbative correction              ....  0.000000
   Density functional embedding theory  .... OFF
   NL short-range parameter             ....  4.800000
 RI-approximation to the Coulomb term is turned on
   Number of AuxJ basis functions       .... 1568
   RIJ-COSX (HFX calculated with COS-X)).... on


General Settings:
 Integral files         IntName         .... input_49
 Hartree-Fock type      HFTyp           .... UHF
 Total Charge           Charge          ....   -2
 Multiplicity           Mult            ....    2
 Number of Electrons    NEL             ....  321
 Basis Dimension        Dim             ....  681
 Nuclear Repulsion      ENuc            ....   5053.7368517094 Eh

Convergence Acceleration:
 DIIS                   CNVDIIS         .... on
   Start iteration      DIISMaxIt       ....    12
   Startup error        DIISStart       ....  0.200000
   # of expansion vecs  DIISMaxEq       ....     5
   Bias factor          DIISBfac        ....   1.050
   Max. coefficient     DIISMaxC        ....  10.000
 Trust-Rad. Augm. Hess. CNVTRAH         .... auto
   Auto Start mean grad. ratio tolernc. ....  1.125000
   Auto Start start iteration           ....    20
   Auto Start num. interpolation iter.  ....    10
   Max. Number of Micro iterations      ....    16
   Max. Number of Macro iterations      .... Maxiter - #DIIS iter
   Number of Davidson start vectors     ....     2
   Converg. threshold I  (grad. norm)   ....   5.000e-05
   Converg. threshold II (energy diff.) ....   1.000e-06
   Grad. Scal. Fac. for Micro threshold ....   0.100
   Minimum threshold for Micro iter.    ....   0.010
   NR start threshold (gradient norm)   ....   0.001
   Initial trust radius                 ....   0.400
   Minimum AH scaling param. (alpha)    ....   1.000
   Maximum AH scaling param. (alpha)    .... 1000.000
   Orbital update algorithm             .... Taylor
   White noise on init. David. guess    .... on
   Maximum white noise                  ....   0.010
   Quad. conv. algorithm                .... NR
 SOSCF                  CNVSOSCF        .... off
 Level Shifting         CNVShift        .... on
   Level shift para.    LevelShift      ....    0.2500
   Turn off err/grad.   ShiftErr        ....    0.0010
 Zerner damping         CNVZerner       .... off
 Static damping         CNVDamp         .... on
   Fraction old density DampFac         ....    0.7000
   Max. Damping (<1)    DampMax         ....    0.9800
   Min. Damping (>=0)   DampMin         ....    0.0000
   Turn off err/grad.   DampErr         ....    0.1000
 Fernandez-Rico         CNVRico         .... off

SCF Procedure:
 Maximum # iterations   MaxIter         ....   125
 SCF integral mode      SCFMode         .... Direct
   Integral package                     .... SHARK and LIBINT hybrid scheme
 Reset frequency        DirectResetFreq ....    20
 Integral Threshold     Thresh          ....  1.000e-10 Eh
 Primitive CutOff       TCut            ....  1.000e-11 Eh

Convergence Tolerance:
 Convergence Check Mode ConvCheckMode   .... Total+1el-Energy
 Convergence forced     ConvForced      .... 0
 Energy Change          TolE            ....  1.000e-06 Eh
 1-El. energy change                    ....  1.000e-03 Eh
 DIIS Error             TolErr          ....  1.000e-06


Diagonalization of the overlap matrix:
Smallest eigenvalue                        ... 8.775e-05
Time for diagonalization                   ...    0.186 sec
Threshold for overlap eigenvalues          ... 1.000e-08
Number of eigenvalues below threshold      ... 0
Time for construction of square roots      ...    0.174 sec
Total time needed                          ...    0.362 sec

Time for model grid setup =    0.389 sec

------------------------------
INITIAL GUESS: MODEL POTENTIAL
------------------------------
Loading Hartree-Fock densities                     ... done
Calculating cut-offs                               ... done
Initializing the effective Hamiltonian             ... done
Setting up the integral package (SHARK)            ... done
Starting the Coulomb interaction                   ... done (   0.4 sec)
Reading the grid                                   ... done
Mapping shells                                     ... done
Starting the XC term evaluation                    ... done (   0.2 sec)
  promolecular density results
     # of electrons  =    318.997369397
     EX              =   -428.140270744
     EC              =    -12.527791289
     EX+EC           =   -440.668062032
Transforming the Hamiltonian                       ... done (   0.2 sec)
Diagonalizing the Hamiltonian                      ... done (   0.2 sec)
Back transforming the eigenvectors                 ... done (   0.1 sec)
Now organizing SCF variables                       ... done
                      ------------------
                      INITIAL GUESS DONE (   1.5 sec)
                      ------------------
-------------------
DFT GRID GENERATION
-------------------

General Integration Accuracy     IntAcc      ... 4.388
Radial Grid Type                 RadialGrid  ... OptM3 with GC (2021)
Angular Grid (max. ang.)         AngularGrid ... 4 (Lebedev-302)
Angular grid pruning method      GridPruning ... 4 (adaptive)
Weight generation scheme         WeightScheme... Becke
Basis function cutoff            BFCut       ... 1.0000e-10
Integration weight cutoff        WCut        ... 1.0000e-14
Angular grids for H and He will be reduced by one unit
Partially contracted basis set               ... off
Rotationally invariant grid construction     ... off

Total number of grid points                  ...   237215
Total number of batches                      ...     3727
Average number of points per batch           ...       63
Average number of grid points per atom       ...     5930
Time for grid setup =    1.916 sec

--------------------
COSX GRID GENERATION
--------------------

GRIDX 1
-------
General Integration Accuracy     IntAcc      ... 3.816
Radial Grid Type                 RadialGrid  ... OptM3 with GC (2021)
Angular Grid (max. ang.)         AngularGrid ... 1 (Lebedev-50)
Angular grid pruning method      GridPruning ... 4 (adaptive)
Weight generation scheme         WeightScheme... Becke
Basis function cutoff            BFCut       ... 1.0000e-10
Integration weight cutoff        WCut        ... 1.0000e-14
Angular grids for H and He will be reduced by one unit
Partially contracted basis set               ... on
Rotationally invariant grid construction     ... off

Total number of grid points                  ...    29197
Total number of batches                      ...      479
Average number of points per batch           ...       60
Average number of grid points per atom       ...      730
UseSFitting                                  ... on

GRIDX 2
-------
General Integration Accuracy     IntAcc      ... 4.020
Radial Grid Type                 RadialGrid  ... OptM3 with GC (2021)
Angular Grid (max. ang.)         AngularGrid ... 2 (Lebedev-110)
Angular grid pruning method      GridPruning ... 4 (adaptive)
Weight generation scheme         WeightScheme... Becke
Basis function cutoff            BFCut       ... 1.0000e-10
Integration weight cutoff        WCut        ... 1.0000e-14
Angular grids for H and He will be reduced by one unit
Partially contracted basis set               ... on
Rotationally invariant grid construction     ... off

Total number of grid points                  ...    64070
Total number of batches                      ...     1018
Average number of points per batch           ...       62
Average number of grid points per atom       ...     1602
UseSFitting                                  ... on

GRIDX 3
-------
General Integration Accuracy     IntAcc      ... 4.338
Radial Grid Type                 RadialGrid  ... OptM3 with GC (2021)
Angular Grid (max. ang.)         AngularGrid ... 3 (Lebedev-194)
Angular grid pruning method      GridPruning ... 4 (adaptive)
Weight generation scheme         WeightScheme... Becke
Basis function cutoff            BFCut       ... 1.0000e-10
Integration weight cutoff        WCut        ... 1.0000e-14
Angular grids for H and He will be reduced by one unit
Partially contracted basis set               ... on
Rotationally invariant grid construction     ... off

Total number of grid points                  ...   147197
Total number of batches                      ...     2322
Average number of points per batch           ...       63
Average number of grid points per atom       ...     3680
UseSFitting                                  ... on

Time for X-Grid setup             =    2.169 sec

--------------
SCF ITERATIONS
--------------
ITER       Energy         Delta-E        Max-DP      RMS-DP      [F,P]     Damp
               ***  Starting incremental Fock matrix formation  ***
  0  -6336.8246625595   0.000000000000 0.08335761  0.00070191  0.2337446 0.7000
  1  -6337.1473981616  -0.322735602124 0.15004270  0.00069032  0.1558986 0.7000
                               ***Turning on DIIS***
  2  -6337.3031059496  -0.155707787927 0.04547433  0.00033000  0.1091087 0.7000
  3  -6337.3892942955  -0.086188345912 0.15580588  0.00071517  0.0771957 0.0000
  4  -6337.5985652125  -0.209270917011 0.06072646  0.00032137  0.0145401 0.0000
  5  -6337.6042523128  -0.005687100308 0.01514470  0.00008792  0.0113308 0.0000
  6  -6337.6057089733  -0.001456660524 0.00543615  0.00004331  0.0037614 0.0000
  7  -6337.6060367732  -0.000327799898 0.00261684  0.00002414  0.0016463 0.0000
  8  -6337.6061831904  -0.000146417213 0.00378327  0.00002111  0.0013180 0.0000
  9  -6337.6062694299  -0.000086239477 0.00177855  0.00001461  0.0012237 0.0000
 10  -6337.6063243504  -0.000054920481 0.00287817  0.00003270  0.0007650 0.0000
               *** Restarting incremental Fock matrix formation ***
                                   *** Resetting DIIS ***
 11  -6337.6063654633  -0.000041112925 0.00222821  0.00001296  0.0007378 0.0000
 12  -6337.6063314535   0.000034009850 0.00049806  0.00000342  0.0024704 0.0000
 13  -6337.6063676145  -0.000036161035 0.00147622  0.00000682  0.0008643 0.0000
 14  -6337.6063744435  -0.000006829036 0.00029197  0.00000286  0.0002672 0.0000
 15  -6337.6063755978  -0.000001154233 0.00035475  0.00000259  0.0002733 0.0000
 16  -6337.6063773525  -0.000001754681 0.00025362  0.00000172  0.0001240 0.0000
                 **** Energy Check signals convergence ****

               *****************************************************
               *                     SUCCESS                       *
               *           SCF CONVERGED AFTER  17 CYCLES          *
               *****************************************************

Old exchange energy                            =    -85.881517494 Eh
New exchange energy                            =    -85.881457137 Eh
Exchange energy change after final integration =      0.000060358 Eh
Total energy after final integration           =  -6337.606317567 Eh
Final COS-X integration done in                =    28.460 sec

----------------
TOTAL SCF ENERGY
----------------

Total Energy       :        -6337.60631757 Eh         -172455.03535 eV

Components:
Nuclear Repulsion  :         5053.73685171 Eh          137519.17107 eV
Electronic Energy  :       -11391.34316928 Eh         -309974.20642 eV
One Electron Energy:       -18877.94982802 Eh         -513695.13058 eV
Two Electron Energy:         7486.60665874 Eh          203720.92416 eV
Max COSX asymmetry :            0.00000171 Eh               0.00005 eV

Virial components:
Potential Energy   :       -12658.43599837 Eh         -344453.55520 eV
Kinetic Energy     :         6320.82968081 Eh          171998.51985 eV
Virial Ratio       :            2.00265418


DFT components:
N(Alpha)           :      161.000043063223 electrons
N(Beta)            :      160.000044093025 electrons
N(Total)           :      321.000087156247 electrons
E(X)               :     -341.329378266993 Eh       
E(C)               :      -14.710454845895 Eh       
E(XC)              :     -356.039833112888 Eh       
DFET-embed. en.    :        0.000000000000 Eh       

---------------
SCF CONVERGENCE
---------------

  Last Energy change         ...   -5.7170e-07  Tolerance :   1.0000e-06
  Last MAX-Density change    ...    0.0000e+00  Tolerance :   1.0000e-05
  Last RMS-Density change    ...    0.0000e+00  Tolerance :   1.0000e-06
  Last DIIS Error            ...    9.2906e-05  Tolerance :   1.0000e-06

             **** THE GBW FILE WAS UPDATED (input_49.gbw) ****
             **** DENSITY input_49.scfp WAS UPDATED ****
             **** ENERGY FILE WAS UPDATED (input_49.en.tmp) ****
----------------------
UHF SPIN CONTAMINATION
----------------------

Warning: in a DFT calculation there is little theoretical justification to 
         calculate <S**2> as in Hartree-Fock theory. We will do it anyways
         but you should keep in mind that the values have only limited relevance

Expectation value of <S**2>     :     0.765635
Ideal value S*(S+1) for S=0.5   :     0.750000
Deviation                       :     0.015635

             **** THE GBW FILE WAS UPDATED (input_49.gbw) ****
             **** DENSITY input_49.scfp WAS UPDATED ****
----------------
ORBITAL ENERGIES
----------------
                 SPIN UP ORBITALS
  NO   OCC          E(Eh)            E(eV) 
   0   1.0000    -196.678131     -5351.8840 
   1   1.0000     -88.733589     -2414.5637 
   2   1.0000     -88.733442     -2414.5597 
   3   1.0000     -88.730266     -2414.4733 
   4   1.0000     -88.729320     -2414.4476 
   5   1.0000     -88.729311     -2414.4473 
   6   1.0000     -88.729283     -2414.4465 
   7   1.0000     -88.721449     -2414.2334 
   8   1.0000     -88.719304     -2414.1750 
   9   1.0000     -88.650231     -2412.2954 
  10   1.0000     -88.647928     -2412.2328 
  11   1.0000     -88.645515     -2412.1671 
  12   1.0000     -88.643709     -2412.1180 
  13   1.0000     -22.053336      -600.1018 
  14   1.0000     -18.895293      -514.1671 
  15   1.0000     -18.559972      -505.0425 
  16   1.0000     -18.554563      -504.8953 
  17   1.0000     -18.554388      -504.8906 
  18   1.0000     -10.075942      -274.1803 
  19   1.0000     -10.069666      -274.0096 
  20   1.0000     -10.064137      -273.8591 
  21   1.0000     -10.063679      -273.8466 
  22   1.0000     -10.060764      -273.7673 
  23   1.0000     -10.060136      -273.7502 
  24   1.0000     -10.051705      -273.5208 
  25   1.0000     -10.049006      -273.4474 
  26   1.0000     -10.048399      -273.4308 
  27   1.0000     -10.045700      -273.3574 
  28   1.0000     -10.045174      -273.3431 
  29   1.0000     -10.042789      -273.2782 
  30   1.0000     -10.027898      -272.8730 
  31   1.0000     -10.024586      -272.7828 
  32   1.0000      -7.787025      -211.8957 
  33   1.0000      -7.786947      -211.8936 
  34   1.0000      -7.783322      -211.7950 
  35   1.0000      -7.782849      -211.7821 
  36   1.0000      -7.782785      -211.7803 
  37   1.0000      -7.782616      -211.7758 
  38   1.0000      -7.774447      -211.5535 
  39   1.0000      -7.772391      -211.4975 
  40   1.0000      -7.703812      -209.6314 
  41   1.0000      -7.701138      -209.5586 
  42   1.0000      -7.699583      -209.5163 
  43   1.0000      -7.697704      -209.4652 
  44   1.0000      -5.752004      -156.5200 
  45   1.0000      -5.751945      -156.5184 
  46   1.0000      -5.748625      -156.4280 
  47   1.0000      -5.748506      -156.4248 
  48   1.0000      -5.748188      -156.4162 
  49   1.0000      -5.747876      -156.4076 
  50   1.0000      -5.747775      -156.4049 
  51   1.0000      -5.747495      -156.3973 
  52   1.0000      -5.744407      -156.3133 
  53   1.0000      -5.744382      -156.3126 
  54   1.0000      -5.744018      -156.3027 
  55   1.0000      -5.743188      -156.2801 
  56   1.0000      -5.741802      -156.2424 
  57   1.0000      -5.741735      -156.2405 
  58   1.0000      -5.739082      -156.1684 
  59   1.0000      -5.739071      -156.1681 
  60   1.0000      -5.738432      -156.1507 
  61   1.0000      -5.737607      -156.1282 
  62   1.0000      -5.737535      -156.1263 
  63   1.0000      -5.737053      -156.1132 
  64   1.0000      -5.735333      -156.0663 
  65   1.0000      -5.733214      -156.0087 
  66   1.0000      -5.730239      -155.9277 
  67   1.0000      -5.728180      -155.8717 
  68   1.0000      -5.668892      -154.2584 
  69   1.0000      -5.666367      -154.1897 
  70   1.0000      -5.664851      -154.1484 
  71   1.0000      -5.663039      -154.0991 
  72   1.0000      -5.662467      -154.0836 
  73   1.0000      -5.661556      -154.0588 
  74   1.0000      -5.659896      -154.0136 
  75   1.0000      -5.658634      -153.9793 
  76   1.0000      -5.658173      -153.9667 
  77   1.0000      -5.657059      -153.9364 
  78   1.0000      -5.656412      -153.9188 
  79   1.0000      -5.654987      -153.8800 
  80   1.0000      -2.447185       -66.5913 
  81   1.0000      -1.488917       -40.5155 
  82   1.0000      -1.476797       -40.1857 
  83   1.0000      -1.475756       -40.1573 
  84   1.0000      -0.709188       -19.2980 
  85   1.0000      -0.703136       -19.1333 
  86   1.0000      -0.684562       -18.6279 
  87   1.0000      -0.674137       -18.3442 
  88   1.0000      -0.654705       -17.8154 
  89   1.0000      -0.630415       -17.1545 
  90   1.0000      -0.619793       -16.8654 
  91   1.0000      -0.617660       -16.8074 
  92   1.0000      -0.613817       -16.7028 
  93   1.0000      -0.573546       -15.6070 
  94   1.0000      -0.572132       -15.5685 
  95   1.0000      -0.562174       -15.2975 
  96   1.0000      -0.559531       -15.2256 
  97   1.0000      -0.496996       -13.5239 
  98   1.0000      -0.496002       -13.4969 
  99   1.0000      -0.492479       -13.4010 
 100   1.0000      -0.489073       -13.3084 
 101   1.0000      -0.480159       -13.0658 
 102   1.0000      -0.474281       -12.9058 
 103   1.0000      -0.446282       -12.1439 
 104   1.0000      -0.440052       -11.9744 
 105   1.0000      -0.408578       -11.1180 
 106   1.0000      -0.383740       -10.4421 
 107   1.0000      -0.354680        -9.6513 
 108   1.0000      -0.346606        -9.4316 
 109   1.0000      -0.326426        -8.8825 
 110   1.0000      -0.320489        -8.7209 
 111   1.0000      -0.318974        -8.6797 
 112   1.0000      -0.312915        -8.5149 
 113   1.0000      -0.303004        -8.2452 
 114   1.0000      -0.292958        -7.9718 
 115   1.0000      -0.292782        -7.9670 
 116   1.0000      -0.289571        -7.8796 
 117   1.0000      -0.258388        -7.0311 
 118   1.0000      -0.257219        -6.9993 
 119   1.0000      -0.255953        -6.9648 
 120   1.0000      -0.252053        -6.8587 
 121   1.0000      -0.234770        -6.3884 
 122   1.0000      -0.231538        -6.3005 
 123   1.0000      -0.230969        -6.2850 
 124   1.0000      -0.228699        -6.2232 
 125   1.0000      -0.216861        -5.9011 
 126   1.0000      -0.212628        -5.7859 
 127   1.0000      -0.210232        -5.7207 
 128   1.0000      -0.194433        -5.2908 
 129   1.0000      -0.188901        -5.1403 
 130   1.0000      -0.187574        -5.1041 
 131   1.0000      -0.182151        -4.9566 
 132   1.0000      -0.180296        -4.9061 
 133   1.0000      -0.172403        -4.6913 
 134   1.0000      -0.153062        -4.1650 
 135   1.0000      -0.151563        -4.1242 
 136   1.0000      -0.148166        -4.0318 
 137   1.0000      -0.136625        -3.7178 
 138   1.0000      -0.130976        -3.5640 
 139   1.0000      -0.129419        -3.5217 
 140   1.0000      -0.123890        -3.3712 
 141   1.0000      -0.117706        -3.2029 
 142   1.0000      -0.115457        -3.1417 
 143   1.0000      -0.111575        -3.0361 
 144   1.0000      -0.101402        -2.7593 
 145   1.0000      -0.095812        -2.6072 
 146   1.0000      -0.092582        -2.5193 
 147   1.0000      -0.089534        -2.4364 
 148   1.0000      -0.068272        -1.8578 
 149   1.0000      -0.066794        -1.8176 
 150   1.0000      -0.063218        -1.7202 
 151   1.0000      -0.055537        -1.5112 
 152   1.0000      -0.042771        -1.1639 
 153   1.0000      -0.040797        -1.1102 
 154   1.0000      -0.035977        -0.9790 
 155   1.0000      -0.031596        -0.8598 
 156   1.0000      -0.026819        -0.7298 
 157   1.0000      -0.024818        -0.6753 
 158   1.0000      -0.010533        -0.2866 
 159   1.0000       0.016708         0.4546 
 160   1.0000       0.034581         0.9410 
 161   0.0000       0.112642         3.0651 
 162   0.0000       0.136107         3.7037 
 163   0.0000       0.139787         3.8038 
 164   0.0000       0.158130         4.3029 
 165   0.0000       0.166788         4.5385 
 166   0.0000       0.167604         4.5607 
 167   0.0000       0.171647         4.6708 
 168   0.0000       0.173164         4.7120 
 169   0.0000       0.174035         4.7357 
 170   0.0000       0.175482         4.7751 
 171   0.0000       0.176253         4.7961 
 172   0.0000       0.180747         4.9184 
 173   0.0000       0.185381         5.0445 
 174   0.0000       0.194252         5.2859 
 175   0.0000       0.196636         5.3507 
 176   0.0000       0.197897         5.3851 
 177   0.0000       0.198338         5.3971 
 178   0.0000       0.201183         5.4745 
 179   0.0000       0.202796         5.5184 
 180   0.0000       0.212443         5.7809 
 181   0.0000       0.213690         5.8148 
 182   0.0000       0.216407         5.8887 
 183   0.0000       0.217100         5.9076 
 184   0.0000       0.220922         6.0116 
 185   0.0000       0.229953         6.2573 
 186   0.0000       0.231396         6.2966 
 187   0.0000       0.233505         6.3540 
 188   0.0000       0.238483         6.4895 
 189   0.0000       0.241473         6.5708 
 190   0.0000       0.244602         6.6560 
 191   0.0000       0.249300         6.7838 
 192   0.0000       0.256969         6.9925 
 193   0.0000       0.258426         7.0321 
 194   0.0000       0.264002         7.1839 
 195   0.0000       0.268413         7.3039 
 196   0.0000       0.269891         7.3441 
 197   0.0000       0.272726         7.4212 
 198   0.0000       0.273869         7.4524 
 199   0.0000       0.275491         7.4965 
 200   0.0000       0.287221         7.8157 
 201   0.0000       0.290955         7.9173 
 202   0.0000       0.303039         8.2461 
 203   0.0000       0.309618         8.4251 
 204   0.0000       0.312047         8.4912 
 205   0.0000       0.315450         8.5838 
 206   0.0000       0.330679         8.9982 
 207   0.0000       0.332399         9.0450 
 208   0.0000       0.335150         9.1199 
 209   0.0000       0.335724         9.1355 
 210   0.0000       0.347934         9.4678 
 211   0.0000       0.351164         9.5557 
 212   0.0000       0.351844         9.5742 
 213   0.0000       0.356868         9.7109 
 214   0.0000       0.361766         9.8442 
 215   0.0000       0.363637         9.8951 
 216   0.0000       0.369584        10.0569 
 217   0.0000       0.372883        10.1467 
 218   0.0000       0.377538        10.2733 
 219   0.0000       0.384172        10.4539 
 220   0.0000       0.386742        10.5238 
 221   0.0000       0.389322        10.5940 
 222   0.0000       0.392218        10.6728 
 223   0.0000       0.393500        10.7077 
 224   0.0000       0.395984        10.7753 
 225   0.0000       0.401140        10.9156 
 226   0.0000       0.404388        11.0040 
 227   0.0000       0.407380        11.0854 
 228   0.0000       0.408960        11.1284 
 229   0.0000       0.417085        11.3495 
 230   0.0000       0.418406        11.3854 
 231   0.0000       0.425418        11.5762 
 232   0.0000       0.429077        11.6758 
 233   0.0000       0.434527        11.8241 
 234   0.0000       0.445207        12.1147 
 235   0.0000       0.446231        12.1426 
 236   0.0000       0.447986        12.1903 
 237   0.0000       0.451011        12.2726 
 238   0.0000       0.454954        12.3799 
 239   0.0000       0.462127        12.5751 
 240   0.0000       0.466212        12.6863 
 241   0.0000       0.467654        12.7255 
 242   0.0000       0.470323        12.7981 
 243   0.0000       0.472523        12.8580 
 244   0.0000       0.476446        12.9647 
 245   0.0000       0.477682        12.9984 
 246   0.0000       0.479603        13.0507 
 247   0.0000       0.481745        13.1090 
 248   0.0000       0.486350        13.2342 
 249   0.0000       0.490895        13.3579 
 250   0.0000       0.493849        13.4383 
 251   0.0000       0.497754        13.5446 
 252   0.0000       0.503047        13.6886 
 253   0.0000       0.504838        13.7373 
 254   0.0000       0.505239        13.7482 
 255   0.0000       0.511490        13.9183 
 256   0.0000       0.511727        13.9248 
 257   0.0000       0.514498        14.0002 
 258   0.0000       0.521847        14.2002 
 259   0.0000       0.522765        14.2252 
 260   0.0000       0.524244        14.2654 
 261   0.0000       0.526022        14.3138 
 262   0.0000       0.528628        14.3847 
 263   0.0000       0.529341        14.4041 
 264   0.0000       0.533076        14.5057 
 265   0.0000       0.534494        14.5443 
 266   0.0000       0.538425        14.6513 
 267   0.0000       0.540594        14.7103 
 268   0.0000       0.542492        14.7620 
 269   0.0000       0.549553        14.9541 
 270   0.0000       0.551271        15.0008 
 271   0.0000       0.557859        15.1801 
 272   0.0000       0.559824        15.2336 
 273   0.0000       0.563511        15.3339 
 274   0.0000       0.565052        15.3758 
 275   0.0000       0.567774        15.4499 
 276   0.0000       0.571142        15.5416 
 277   0.0000       0.571784        15.5590 
 278   0.0000       0.574126        15.6228 
 279   0.0000       0.579846        15.7784 
 280   0.0000       0.581383        15.8202 
 281   0.0000       0.583711        15.8836 
 282   0.0000       0.584849        15.9145 
 283   0.0000       0.588302        16.0085 
 284   0.0000       0.594505        16.1773 
 285   0.0000       0.598440        16.2844 
 286   0.0000       0.601549        16.3690 
 287   0.0000       0.603411        16.4196 
 288   0.0000       0.607397        16.5281 
 289   0.0000       0.610897        16.6234 
 290   0.0000       0.613755        16.7011 
 291   0.0000       0.616270        16.7695 
 292   0.0000       0.618231        16.8229 
 293   0.0000       0.620444        16.8831 
 294   0.0000       0.622307        16.9338 
 295   0.0000       0.627003        17.0616 
 296   0.0000       0.628976        17.1153 
 297   0.0000       0.635448        17.2914 
 298   0.0000       0.640095        17.4179 
 299   0.0000       0.641976        17.4691 
 300   0.0000       0.646042        17.5797 
 301   0.0000       0.655768        17.8443 
 302   0.0000       0.667616        18.1668 
 303   0.0000       0.677488        18.4354 
 304   0.0000       0.685428        18.6515 
 305   0.0000       0.702694        19.1213 
 306   0.0000       0.705117        19.1872 
 307   0.0000       0.720933        19.6176 
 308   0.0000       0.726214        19.7613 
 309   0.0000       0.728767        19.8308 
 310   0.0000       0.736326        20.0365 
 311   0.0000       0.746448        20.3119 
 312   0.0000       0.749835        20.4040 
 313   0.0000       0.763290        20.7702 
 314   0.0000       0.766535        20.8585 
 315   0.0000       0.773184        21.0394 
 316   0.0000       0.779032        21.1985 
 317   0.0000       0.784820        21.3560 
 318   0.0000       0.794886        21.6299 
 319   0.0000       0.800611        21.7857 
 320   0.0000       0.806926        21.9576 
 321   0.0000       0.818270        22.2663 
 322   0.0000       0.821488        22.3538 
 323   0.0000       0.833292        22.6750 
 324   0.0000       0.835966        22.7478 
 325   0.0000       0.841550        22.8997 
 326   0.0000       0.847789        23.0695 
 327   0.0000       0.850003        23.1298 
 328   0.0000       0.853774        23.2324 
 329   0.0000       0.864602        23.5270 
 330   0.0000       0.867446        23.6044 
 331   0.0000       0.872076        23.7304 
 332   0.0000       0.879978        23.9454 
 333   0.0000       0.885615        24.0988 
 334   0.0000       0.889301        24.1991 
 335   0.0000       0.891357        24.2551 
 336   0.0000       0.895897        24.3786 
 337   0.0000       0.896637        24.3987 
 338   0.0000       0.904885        24.6232 
 339   0.0000       0.910008        24.7626 
 340   0.0000       0.924837        25.1661 
 341   0.0000       0.926631        25.2149 
 342   0.0000       0.936866        25.4934 
 343   0.0000       0.937830        25.5196 
 344   0.0000       0.941507        25.6197 
 345   0.0000       0.945122        25.7181 
 346   0.0000       0.962677        26.1958 
 347   0.0000       0.965603        26.2754 
 348   0.0000       0.971301        26.4304 
 349   0.0000       0.971916        26.4472 
 350   0.0000       0.973694        26.4956 
 351   0.0000       0.981939        26.7199 
 352   0.0000       0.983192        26.7540 
 353   0.0000       0.993114        27.0240 
 354   0.0000       1.006251        27.3815 
 355   0.0000       1.009038        27.4573 
 356   0.0000       1.012932        27.5633 
 357   0.0000       1.013339        27.5744 
 358   0.0000       1.016547        27.6617 
 359   0.0000       1.018650        27.7189 
 360   0.0000       1.026798        27.9406 
 361   0.0000       1.033642        28.1268 
 362   0.0000       1.038645        28.2630 
 363   0.0000       1.040651        28.3176 
 364   0.0000       1.058429        28.8013 
 365   0.0000       1.060972        28.8705 
 366   0.0000       1.065828        29.0027 
 367   0.0000       1.069457        29.1014 
 368   0.0000       1.072629        29.1877 
 369   0.0000       1.076940        29.3050 
 370   0.0000       1.085590        29.5404 
 371   0.0000       1.088560        29.6212 
 372   0.0000       1.092690        29.7336 
 373   0.0000       1.093558        29.7572 
 374   0.0000       1.103360        30.0239 
 375   0.0000       1.107634        30.1402 
 376   0.0000       1.114955        30.3395 
 377   0.0000       1.119536        30.4641 
 378   0.0000       1.123520        30.5725 
 379   0.0000       1.128081        30.6966 
 380   0.0000       1.150382        31.3035 
 381   0.0000       1.156326        31.4652 
 382   0.0000       1.157273        31.4910 
 383   0.0000       1.165979        31.7279 
 384   0.0000       1.172524        31.9060 
 385   0.0000       1.197238        32.5785 
 386   0.0000       1.204353        32.7721 
 387   0.0000       1.210447        32.9379 
 388   0.0000       1.233949        33.5775 
 389   0.0000       1.239085        33.7172 
 390   0.0000       1.243224        33.8298 
 391   0.0000       1.247192        33.9378 
 392   0.0000       1.252057        34.0702 
 393   0.0000       1.262329        34.3497 
 394   0.0000       1.277963        34.7751 
 395   0.0000       1.291692        35.1487 
 396   0.0000       1.295804        35.2606 
 397   0.0000       1.303955        35.4824 
 398   0.0000       1.305773        35.5319 
 399   0.0000       1.308411        35.6037 
 400   0.0000       1.316385        35.8207 
 401   0.0000       1.321064        35.9480 
 402   0.0000       1.337469        36.3944 
 403   0.0000       1.350749        36.7557 
 404   0.0000       1.360458        37.0199 
 405   0.0000       1.400007        38.0961 
 406   0.0000       1.403570        38.1931 
 407   0.0000       1.426971        38.8299 
 408   0.0000       1.428790        38.8794 
 409   0.0000       1.430435        38.9241 
 410   0.0000       1.432254        38.9736 
 411   0.0000       1.443085        39.2683 
 412   0.0000       1.446695        39.3666 
 413   0.0000       1.483936        40.3800 
 414   0.0000       1.486119        40.4394 
 415   0.0000       1.491306        40.5805 
 416   0.0000       1.497509        40.7493 
 417   0.0000       1.501036        40.8453 
 418   0.0000       1.507026        41.0083 
 419   0.0000       1.507882        41.0316 
 420   0.0000       1.526314        41.5331 
 421   0.0000       1.530113        41.6365 
 422   0.0000       1.547428        42.1077 
 423   0.0000       1.550566        42.1930 
 424   0.0000       1.573566        42.8189 
[...]
Total number of batches                      ...      301
Average number of points per batch           ...       59
Average number of grid points per atom       ...      444

Memory available               ... 812.8 MB
Memory needed per perturbation ...  48.1 MB
Perturbations treated per batch... 3
Number of batches              ... 1
     CP-SCF ITERATION   0:   4.0782e-02 (   6.2 sec   0/  3 done)
     CP-SCF ITERATION   1:   1.4885e-03 (   6.3 sec   0/  3 done)
     CP-SCF ITERATION   2:   1.7601e-04 (   6.4 sec   3/  3 done)
                    *** THE CP-SCF HAS CONVERGED ***

Forming final perturbed densities           ... done
Transforming perturbed density to AO basis  ... done

 Raw HFC matrix (all values in MHz): 
 -----------------------------------
                -0.0726              -0.0014               0.0024
                -0.0016              -0.0262              -0.0967
                 0.0027              -0.0966               0.1348

 A(FC)           0.0119               0.0119               0.0119
 A(SD)          -0.0838              -0.0856               0.1694
 A(ORB+DIA)      0.0005               0.0011              -0.0011    A(PC) =   0.0001
 A(ORB)          0.0005               0.0011              -0.0011    A(PC) =   0.0002
 A(DIA)         -0.0000              -0.0000               0.0000    A(PC) =  -0.0000
             ----------           ----------           ----------
 A(Tot)         -0.0715              -0.0727               0.1802    A(iso)=    0.0120
 Orientation: 
  X          -0.1939839            0.9809451           -0.0108138
  Y           0.8874171            0.1801660            0.4243006
  Z           0.4181639            0.0727111           -0.9054568

Notes:  (1) The A matrix conforms to the "SAI" spin Hamiltonian convention.
        (2) Tensor is right-handed.

 Raw EFG matrix (all values in a.u.**-3):
 -----------------------------------
            -0.1456      -0.0177       0.0026
            -0.0177       0.2138      -0.1659
             0.0026      -0.1659      -0.0682

 V(El)       0.5492       0.8170      -1.3662
 V(Nuc)     -0.6897      -0.9677       1.6574
         ----------   ----------   ----------
 V(Tot)     -0.1405      -0.1507       0.2912 
 Orientation: 
  X       0.6582713   -0.7517641   -0.0391100
  Y      -0.2920692   -0.3029400    0.9071510
  Z      -0.6938116   -0.5857287   -0.4189838

Note: Tensor is right-handed


 Quadrupole tensor eigenvalues (in MHz;Q= 0.0029 I=  1.0)
  e**2qQ            =     0.195560 MHz 
  e**2qQ/(4I*(2I-1))=     0.048890 MHz 
  eta               =     0.035213
  NOTE: the diagonal representation of the SH term I*Q*I = e**2qQ/(4I(2I-1))*[-(1-eta),-(1+eta),2]

 RHO(0)=      0.443792898 a.u.**-3

 -----------------------------------------------------------
 Nucleus  39H : A:ISTP=    1 I=  0.5 P=533.5514 MHz/au**3
                Q:ISTP=    2 I=  1.0 Q=  0.0029 barn     
 -----------------------------------------------------------
 Solving for nuclear perturbation:
Forming RHS of the CP-SCF equations         ... 
Calc. nucleus orbit integrals (SHARK)       ... done

------------------------------------------------------------------------------
                           ORCA CP-SCF CALCULATION
------------------------------------------------------------------------------

Input orbitals are from        ... input_49.gbw
Input Perturbation             ... input_49.pin.tmp
Wavefunction output            ... input_49.pout.tmp
Perturbation mode              ... Imaginary perturbation
Solver                         ... POPLE
Max. number of iterations      ... 64
Convergence tolerance          ... 1.000e-03
Integral handling              ... Direct
DFT GridXC                     ... 1
COSX GridX                     ... 1
COSX IntAccX                   ... 3.067
COSX Algorithm                 ... Auto
Number of perturbations        ... 3
Number of operators            ... 2
Orbital ranges used for CP-SCF:
 Operator 0:  Orbitals   0...160  to 161...680
 Operator 1:  Orbitals   0...159  to 160...680
Variables per perturbation     ... 167080
DFT calculation                         ... on
XC functional terms                     ... off
Hybrid DFT                              ... on
   Exchange mixing (SCF)                ...  0.200
   Exchange mixing (CP-SCF)             ...  0.200
   GGA exch. scaling(SCF)               ...  0.720
   GGA exch. scaling (CP-SCF)           ...  0.720
   GGA corr. scaling (SCF)              ...  0.810
   GGA corr. scaling (CP-SCF)           ...  0.810

CP-SCF GRID
-----------

General Integration Accuracy     IntAcc      ... 3.467
Radial Grid Type                 RadialGrid  ... OptM3 with GC (2021)
Angular Grid (max. ang.)         AngularGrid ... 1 (Lebedev-50)
Angular grid pruning method      GridPruning ... 4 (adaptive)
Weight generation scheme         WeightScheme... Becke
Basis function cutoff            BFCut       ... 1.0000e-10
Integration weight cutoff        WCut        ... 1.0000e-14
Angular grids for H and He will be reduced by one unit
Partially contracted basis set               ... off
Rotationally invariant grid construction     ... off

Total number of grid points                  ...    39344
Total number of batches                      ...      638
Average number of points per batch           ...       61
Average number of grid points per atom       ...      984

CP-SCF GRIDX
------------

General Integration Accuracy     IntAcc      ... 3.067
Radial Grid Type                 RadialGrid  ... OptM3 with GC (2021)
Angular Grid (max. ang.)         AngularGrid ... 1 (Lebedev-50)
Angular grid pruning method      GridPruning ... 4 (adaptive)
Weight generation scheme         WeightScheme... Becke
Basis function cutoff            BFCut       ... 1.0000e-10
Integration weight cutoff        WCut        ... 1.0000e-14
Angular grids for H and He will be reduced by one unit
Partially contracted basis set               ... on
Rotationally invariant grid construction     ... off

Total number of grid points                  ...    17771
Total number of batches                      ...      301
Average number of points per batch           ...       59
Average number of grid points per atom       ...      444

Memory available               ... 809.9 MB
Memory needed per perturbation ...  48.1 MB
Perturbations treated per batch... 3
Number of batches              ... 1
     CP-SCF ITERATION   0:   4.5978e-02 (   6.2 sec   0/  3 done)
     CP-SCF ITERATION   1:   1.7711e-03 (   6.3 sec   1/  3 done)
     CP-SCF ITERATION   2:   1.9364e-04 (   5.2 sec   3/  3 done)
                    *** THE CP-SCF HAS CONVERGED ***

Forming final perturbed densities           ... done
Transforming perturbed density to AO basis  ... done

 Raw HFC matrix (all values in MHz): 
 -----------------------------------
                -0.1332               0.0147              -0.0348
                 0.0146              -0.0876              -0.1342
                -0.0344              -0.1339               0.2014

 A(FC)          -0.0068              -0.0068              -0.0068
 A(SD)          -0.1314              -0.1345               0.2659
 A(ORB+DIA)      0.0017               0.0008              -0.0015    A(PC) =   0.0003
 A(ORB)          0.0017               0.0009              -0.0015    A(PC) =   0.0004
 A(DIA)         -0.0000              -0.0001               0.0000    A(PC) =  -0.0000
             ----------           ----------           ----------
 A(Tot)         -0.1365              -0.1405               0.2576    A(iso)=   -0.0064
 Orientation: 
  X           0.9614189           -0.2577484           -0.0961221
  Y           0.2070344            0.9080462           -0.3641275
  Z           0.1811366            0.3301785            0.9263756

Notes:  (1) The A matrix conforms to the "SAI" spin Hamiltonian convention.
        (2) Tensor is right-handed.

 Raw EFG matrix (all values in a.u.**-3):
 -----------------------------------
             0.1415      -0.0168       0.2033
            -0.0168      -0.1432      -0.0098
             0.2033      -0.0098       0.0017

 V(El)       0.6413       0.4457      -1.0870
 V(Nuc)     -0.7832      -0.5912       1.3744
         ----------   ----------   ----------
 V(Tot)     -0.1419      -0.1455       0.2874 
 Orientation: 
  X       0.4204811   -0.4023216   -0.8132238
  Y      -0.6438519   -0.7638271    0.0449773
  Z      -0.6392577    0.5046836   -0.5802103

Note: Tensor is right-handed


 Quadrupole tensor eigenvalues (in MHz;Q= 0.0029 I=  1.0)
  e**2qQ            =     0.193018 MHz 
  e**2qQ/(4I*(2I-1))=     0.048255 MHz 
  eta               =     0.012684
  NOTE: the diagonal representation of the SH term I*Q*I = e**2qQ/(4I(2I-1))*[-(1-eta),-(1+eta),2]

 RHO(0)=      0.442298800 a.u.**-3

 -----------------------------------------------------------
 Nucleus   0V : A:ISTP=   51 I=  3.5 P=140.5173 MHz/au**3
                Q:ISTP=   51 I=  3.5 Q= -0.0430 barn     
 -----------------------------------------------------------
 Solving for nuclear perturbation:
Forming RHS of the CP-SCF equations         ... 
Calc. nucleus orbit integrals (SHARK)       ... done

------------------------------------------------------------------------------
                           ORCA CP-SCF CALCULATION
------------------------------------------------------------------------------

Input orbitals are from        ... input_49.gbw
Input Perturbation             ... input_49.pin.tmp
Wavefunction output            ... input_49.pout.tmp
Perturbation mode              ... Imaginary perturbation
Solver                         ... POPLE
Max. number of iterations      ... 64
Convergence tolerance          ... 1.000e-03
Integral handling              ... Direct
DFT GridXC                     ... 1
COSX GridX                     ... 1
COSX IntAccX                   ... 3.067
COSX Algorithm                 ... Auto
Number of perturbations        ... 3
Number of operators            ... 2
Orbital ranges used for CP-SCF:
 Operator 0:  Orbitals   0...160  to 161...680
 Operator 1:  Orbitals   0...159  to 160...680
Variables per perturbation     ... 167080
DFT calculation                         ... on
XC functional terms                     ... off
Hybrid DFT                              ... on
   Exchange mixing (SCF)                ...  0.200
   Exchange mixing (CP-SCF)             ...  0.200
   GGA exch. scaling(SCF)               ...  0.720
   GGA exch. scaling (CP-SCF)           ...  0.720
   GGA corr. scaling (SCF)              ...  0.810
   GGA corr. scaling (CP-SCF)           ...  0.810

CP-SCF GRID
-----------

General Integration Accuracy     IntAcc      ... 3.467
Radial Grid Type                 RadialGrid  ... OptM3 with GC (2021)
Angular Grid (max. ang.)         AngularGrid ... 1 (Lebedev-50)
Angular grid pruning method      GridPruning ... 4 (adaptive)
Weight generation scheme         WeightScheme... Becke
Basis function cutoff            BFCut       ... 1.0000e-10
Integration weight cutoff        WCut        ... 1.0000e-14
Angular grids for H and He will be reduced by one unit
Partially contracted basis set               ... off
Rotationally invariant grid construction     ... off

Total number of grid points                  ...    39344
Total number of batches                      ...      638
Average number of points per batch           ...       61
Average number of grid points per atom       ...      984

CP-SCF GRIDX
------------

General Integration Accuracy     IntAcc      ... 3.067
Radial Grid Type                 RadialGrid  ... OptM3 with GC (2021)
Angular Grid (max. ang.)         AngularGrid ... 1 (Lebedev-50)
Angular grid pruning method      GridPruning ... 4 (adaptive)
Weight generation scheme         WeightScheme... Becke
Basis function cutoff            BFCut       ... 1.0000e-10
Integration weight cutoff        WCut        ... 1.0000e-14
Angular grids for H and He will be reduced by one unit
Partially contracted basis set               ... on
Rotationally invariant grid construction     ... off

Total number of grid points                  ...    17771
Total number of batches                      ...      301
Average number of points per batch           ...       59
Average number of grid points per atom       ...      444

Memory available               ... 807.1 MB
Memory needed per perturbation ...  48.1 MB
Perturbations treated per batch... 3
Number of batches              ... 1
     CP-SCF ITERATION   0:   1.3637e+01 (   6.7 sec   0/  3 done)
     CP-SCF ITERATION   1:   1.9653e+00 (   6.4 sec   0/  3 done)
     CP-SCF ITERATION   2:   3.5386e-01 (   6.4 sec   0/  3 done)
     CP-SCF ITERATION   3:   4.0921e-02 (   6.4 sec   0/  3 done)
     CP-SCF ITERATION   4:   6.6917e-03 (   6.5 sec   0/  3 done)
     CP-SCF ITERATION   5:   1.9100e-03 (   6.5 sec   0/  3 done)
     CP-SCF ITERATION   6:   3.2169e-04 (   6.5 sec   3/  3 done)
                    *** THE CP-SCF HAS CONVERGED ***

Forming final perturbed densities           ... done
Transforming perturbed density to AO basis  ... done

 Raw HFC matrix (all values in MHz): 
 -----------------------------------
              -385.7987              -3.5914              25.0727
                -3.2218             -83.6411               1.0799
                24.0907               0.5290             -89.7076

 A(FC)        -174.5939            -174.5939            -174.5939
 A(SD)          98.1353              94.4330            -192.5683
 A(ORB+DIA)     -7.0901              -7.5736             -20.7019    A(PC) = -11.7885
 A(ORB)         -7.0897              -7.5740             -20.7018    A(PC) = -11.7885
 A(DIA)         -0.0004               0.0005              -0.0002    A(PC) =  -0.0000
             ----------           ----------           ----------
 A(Tot)        -83.5488             -87.7345            -387.8641    A(iso)= -186.3825
 Orientation: 
  X          -0.0032951            0.0845939           -0.9964101
  Y          -0.9837470           -0.1791616           -0.0119574
  Z          -0.1795299            0.9801760            0.0838093

Notes:  (1) The A matrix conforms to the "SAI" spin Hamiltonian convention.
        (2) Tensor is right-handed.

 Raw EFG matrix (all values in a.u.**-3):
 -----------------------------------
             0.2684       0.0280       0.0024
             0.0280      -0.0701       0.0257
             0.0024       0.0257      -0.1983

 V(El)       0.1610      -0.4900       0.3290
 V(Nuc)     -0.2285       0.2868      -0.0583
         ----------   ----------   ----------
 V(Tot)     -0.0675      -0.2033       0.2708 
 Orientation: 
  X      -0.0828770    0.0063212    0.9965397
  Y       0.9781303   -0.1909068    0.0825569
  Z       0.1907681    0.9815878    0.0096388

Note: Tensor is right-handed


 Quadrupole tensor eigenvalues (in MHz;Q=-0.0430 I=  3.5)
  e**2qQ            =    -2.735646 MHz 
  e**2qQ/(4I*(2I-1))=    -0.032567 MHz 
  eta               =     0.501491
  NOTE: the diagonal representation of the SH term I*Q*I = e**2qQ/(4I(2I-1))*[-(1-eta),-(1+eta),2]

 RHO(0)=   8115.203730852 a.u.**-3


--------------------------------------------------------------------------------
----------------------------------------------------------------------------
                           ORCA EULER ANGLE PROGRAM
----------------------------------------------------------------------------

Only g-tensor available        -->  using g-tensor as reference tensor

Reference tensor               ...  g

g-tensor ordering              ...  |g_min> --> |gx>
                                    |g_mid> --> |gy>
                                    |g_max> --> |gz>

A- and EFG-tensor ordering     ...  the axes |Ax>, |Qx>, |Ay>, etc. are assigned
                                    such that the Euler rotation is minimal. You
                                    can find the respective eigenvalues as Ax,
                                    EFGx, Ay, etc. in the tables below.
                                    The relation of |Ax>, |Ay>,  etc. to Amin, Amid, etc.
                                    (as printed in the ORCA EPR/NMR CALCULATION Output)
                                    is obtained in the detailed printout.

Euler rotation around          ...  z - y - z
   First rotation              -->  by alpha around z
   Second rotation             -->  by beta around y'
   Third rotation              -->  by gamma around z''
   Positive / Negative angle   -->  clockwise / counterclockwise rotation

Plot EFG-tensors                    (-)
Plot HFC-tensors                    (-)
Detailed Printout                   (-)

-------------------------------------------------------------------------
          Euler rotation of hyperfine tensor to g-tensor
-------------------------------------------------------------------------

-------------------------------------------------------------------
 Atom  |   Alpha    Beta    Gamma   |   Ax       Ay       Az 
       |          [degrees]         |           [MHz]         
-------------------------------------------------------------------
 25H       15.7     14.8    -43.8      -0.14     0.26    -0.14
 26H      179.7     34.0    158.2      -0.08     0.17    -0.08
 27H      157.5     35.1    172.1      -0.08     0.13    -0.08
 28H       36.8     21.2    -51.5      -0.07     0.13    -0.07
 29H       32.8     52.5    -43.0      -0.08     0.16    -0.08
 30H       33.5     44.1    -53.7      -0.13     0.25    -0.13
 34H       12.9     18.1    -19.1      -0.13     0.26    -0.14
 35H     -178.6     25.3    177.4      -0.08     0.17    -0.08
 36H      152.9     26.2   -149.7      -0.07     0.14    -0.07
 37H      160.0     41.1   -169.1      -0.07     0.14    -0.07
 38H      120.1     29.8   -121.5      -0.07     0.18    -0.07
 39H      125.9     27.8   -134.0      -0.14     0.26    -0.14
  0V      114.9     11.5   -110.0    -387.86   -87.73   -83.55
-------------------------------------------------------------------


-------------------------------------------------------------------------------
    Euler rotation of Electric Field Gradient (EFG) tensor to g-tensor
-------------------------------------------------------------------------------

-------------------------------------------------------------------
 Atom  |   Alpha    Beta    Gamma  |   EFGx     EFGy     EFGz
       |          [degrees]        |         [a.u.**-3]       
-------------------------------------------------------------------
 25H       16.2     27.4     19.0     -0.15     0.29    -0.14
 26H      143.3     48.8   -114.1     -0.14    -0.15     0.29
 27H      131.1     12.0   -115.4      0.28    -0.15    -0.14
 28H      149.3     11.9   -116.8     -0.15     0.29    -0.14
 29H      -41.2     25.3     69.6     -0.14    -0.15     0.29
 30H        6.2     40.9     28.9     -0.14     0.29    -0.15
 34H      -83.6     24.9     49.2      0.29    -0.15    -0.14
 35H      -59.4     47.7     40.3     -0.15     0.29    -0.14
 36H       85.2     14.9   -121.4      0.29    -0.15    -0.14
 37H      158.7     14.8   -121.7      0.28    -0.15    -0.14
 38H     -145.8     25.1    103.8     -0.15    -0.14     0.29
 39H      -90.8     37.4     54.8      0.29    -0.14    -0.15
  0V      127.8     14.5   -127.9      0.27    -0.20    -0.07
-------------------------------------------------------------------


Maximum memory used throughout the entire EPRNMR-calculation: 318.8 MB

Timings for individual modules:

Sum of individual times         ...     3985.847 sec (=  66.431 min)
GTO integral calculation        ...        1.639 sec (=   0.027 min)   0.0 %
Spin-Orbit-Coupling Matrices    ...       13.152 sec (=   0.219 min)   0.3 %
SCF iterations                  ...      233.235 sec (=   3.887 min)   5.9 %
EPR/NMR calculation             ...     3737.821 sec (=  62.297 min)  93.8 %
                             ****ORCA TERMINATED NORMALLY****
TOTAL RUN TIME: 0 days 1 hours 6 minutes 27 seconds 69 msec
