
                                 *****************
                                 * O   R   C   A *
                                 *****************

                                            #,                                       
                                            ###                                      
                                            ####                                     
                                            #####                                    
                                            ######                                   
                                           ########,                                 
                                     ,,################,,,,,                         
                               ,,#################################,,                 
                          ,,##########################################,,             
                       ,#########################################, ''#####,          
                    ,#############################################,,   '####,        
                  ,##################################################,,,,####,       
                ,###########''''           ''''###############################       
              ,#####''   ,,,,##########,,,,          '''####'''          '####       
            ,##' ,,,,###########################,,,                        '##       
           ' ,,###''''                  '''############,,,                           
         ,,##''                                '''############,,,,        ,,,,,,###''
      ,#''                                            '''#######################'''  
     '                                                          ''''####''''         
             ,#######,   #######,   ,#######,      ##                                
            ,#'     '#,  ##    ##  ,#'     '#,    #''#        ######   ,####,        
            ##       ##  ##   ,#'  ##            #'  '#       #        #'  '#        
            ##       ##  #######   ##           ,######,      #####,   #    #        
            '#,     ,#'  ##    ##  '#,     ,#' ,#      #,         ##   #,  ,#        
             '#######'   ##     ##  '#######'  #'      '#     #####' # '####'        



                  #######################################################
                  #                        -***-                        #
                  #          Department of theory and spectroscopy      #
                  #    Directorship and core code : Frank Neese         #
                  #        Max Planck Institute fuer Kohlenforschung    #
                  #                Kaiser Wilhelm Platz 1               #
                  #                 D-45470 Muelheim/Ruhr               #
                  #                      Germany                        #
                  #                                                     #
                  #                  All rights reserved                #
                  #                        -***-                        #
                  #######################################################


                         Program Version 5.0.4 -  RELEASE  -


 With contributions from (in alphabetic order):
   Daniel Aravena         : Magnetic Suceptibility
   Michael Atanasov       : Ab Initio Ligand Field Theory (pilot matlab implementation)
   Alexander A. Auer      : GIAO ZORA, VPT2 properties, NMR spectrum
   Ute Becker             : Parallelization
   Giovanni Bistoni       : ED, misc. LED, open-shell LED, HFLD
   Martin Brehm           : Molecular dynamics
   Dmytro Bykov           : SCF Hessian
   Vijay G. Chilkuri      : MRCI spin determinant printing, contributions to CSF-ICE
   Dipayan Datta          : RHF DLPNO-CCSD density
   Achintya Kumar Dutta   : EOM-CC, STEOM-CC
   Dmitry Ganyushin       : Spin-Orbit,Spin-Spin,Magnetic field MRCI
   Miquel Garcia          : C-PCM and meta-GGA Hessian, CC/C-PCM, Gaussian charge scheme
   Yang Guo               : DLPNO-NEVPT2, F12-NEVPT2, CIM, IAO-localization
   Andreas Hansen         : Spin unrestricted coupled pair/coupled cluster methods
   Benjamin Helmich-Paris : MC-RPA, TRAH-SCF, COSX integrals
   Lee Huntington         : MR-EOM, pCC
   Robert Izsak           : Overlap fitted RIJCOSX, COSX-SCS-MP3, EOM
   Marcus Kettner         : VPT2
   Christian Kollmar      : KDIIS, OOCD, Brueckner-CCSD(T), CCSD density, CASPT2, CASPT2-K
   Simone Kossmann        : Meta GGA functionals, TD-DFT gradient, OOMP2, MP2 Hessian
   Martin Krupicka        : Initial AUTO-CI
   Lucas Lang             : DCDCAS
   Marvin Lechner         : AUTO-CI (C++ implementation), FIC-MRCC
   Dagmar Lenk            : GEPOL surface, SMD
   Dimitrios Liakos       : Extrapolation schemes; Compound Job, initial MDCI parallelization
   Dimitrios Manganas     : Further ROCIS development; embedding schemes
   Dimitrios Pantazis     : SARC Basis sets
   Anastasios Papadopoulos: AUTO-CI, single reference methods and gradients
   Taras Petrenko         : DFT Hessian,TD-DFT gradient, ASA, ECA, R-Raman, ABS, FL, XAS/XES, NRVS
   Peter Pinski           : DLPNO-MP2, DLPNO-MP2 Gradient
   Christoph Reimann      : Effective Core Potentials
   Marius Retegan         : Local ZFS, SOC
   Christoph Riplinger    : Optimizer, TS searches, QM/MM, DLPNO-CCSD(T), (RO)-DLPNO pert. Triples
   Tobias Risthaus        : Range-separated hybrids, TD-DFT gradient, RPA, STAB
   Michael Roemelt        : Original ROCIS implementation
   Masaaki Saitow         : Open-shell DLPNO-CCSD energy and density
   Barbara Sandhoefer     : DKH picture change effects
   Avijit Sen             : IP-ROCIS
   Kantharuban Sivalingam : CASSCF convergence, NEVPT2, FIC-MRCI
   Bernardo de Souza      : ESD, SOC TD-DFT
   Georgi Stoychev        : AutoAux, RI-MP2 NMR, DLPNO-MP2 response
   Willem Van den Heuvel  : Paramagnetic NMR
   Boris Wezisla          : Elementary symmetry handling
   Frank Wennmohs         : Technical directorship


 We gratefully acknowledge several colleagues who have allowed us to
 interface, adapt or use parts of their codes:
   Stefan Grimme, W. Hujo, H. Kruse, P. Pracht,  : VdW corrections, initial TS optimization,
                  C. Bannwarth, S. Ehlert          DFT functionals, gCP, sTDA/sTD-DF
   Ed Valeev, F. Pavosevic, A. Kumar             : LibInt (2-el integral package), F12 methods
   Garnet Chan, S. Sharma, J. Yang, R. Olivares  : DMRG
   Ulf Ekstrom                                   : XCFun DFT Library
   Mihaly Kallay                                 : mrcc  (arbitrary order and MRCC methods)
   Jiri Pittner, Ondrej Demel                    : Mk-CCSD
   Frank Weinhold                                : gennbo (NPA and NBO analysis)
   Christopher J. Cramer and Donald G. Truhlar   : smd solvation model
   Lars Goerigk                                  : TD-DFT with DH, B97 family of functionals
   V. Asgeirsson, H. Jonsson                     : NEB implementation
   FAccTs GmbH                                   : IRC, NEB, NEB-TS, DLPNO-Multilevel, CI-OPT
                                                   MM, QMMM, 2- and 3-layer-ONIOM, Crystal-QMMM,
                                                   LR-CPCM, SF, NACMEs, symmetry and pop. for TD-DFT,
                                                   nearIR, NL-DFT gradient (VV10), updates on ESD,
                                                   ML-optimized integration grids
   S Lehtola, MJT Oliveira, MAL Marques          : LibXC Library
   Liviu Ungur et al                             : ANISO software


 Your calculation uses the libint2 library for the computation of 2-el integrals
 For citations please refer to: http://libint.valeyev.net

 Your ORCA version has been built with support for libXC version: 5.1.0
 For citations please refer to: https://tddft.org/programs/libxc/

 This ORCA versions uses:
   CBLAS   interface :  Fast vector & matrix operations
   LAPACKE interface :  Fast linear algebra routines
   SCALAPACK package :  Parallel linear algebra routines
   Shared memory     :  Shared parallel matrices
   BLAS/LAPACK       :  OpenBLAS 0.3.15  USE64BITINT DYNAMIC_ARCH NO_AFFINITY Prescott SINGLE_THREADED
        Core in use  :  Prescott
   Copyright (c) 2011-2014, The OpenBLAS Project


================================================================================

----- Orbital basis set information -----
Your calculation utilizes the basis: TZVP 

The basis set includes element-specific modifications.

Your calculation utilizes the basis: CP(PPP) 

----- AuxJ basis set information -----
Your calculation utilizes the auxiliary basis: def2/J
   F. Weigend, Phys. Chem. Chem. Phys. 8, 1057 (2006).

================================================================================
                                        WARNINGS
                       Please study these warnings very carefully!
================================================================================


WARNING: your system is open-shell and RHF/RKS was chosen
  ===> : WILL SWITCH to UHF/UKS


INFO   : the flag for use of the SHARK integral package has been found!

================================================================================
                                       INPUT FILE
================================================================================
NAME = input_65.inp
|  1> ! nofrozencore ReducedPop printbasis
|  2> ! B3LYP TZVP
|  3> 
|  4> %basis
|  5> newgto V "CP(PPP)" end
|  6> end
|  7> 
|  8> %pal
|  9> nprocs 8
| 10> end
| 11> 
| 12> % sym SymThresh 1e-2 end
| 13> * xyz -2 2 
| 14> V 0.9348239278737214 0.056601603761551426 -0.6005871490294872
| 15> S 0.9607849643328552 -2.307965138092159 0.1012208492957642
| 16> S -0.9029066337303037 -0.6030121267495524 -2.133195217463417
| 17> S 1.621105424434044 0.6616381404256594 1.6933498574888752
| 18> S -0.2978675159587366 2.199933154886607 -0.5140198728154706
| 19> O 2.2071595090824214 0.27393988060815666 -1.5285269341085985
| 20> C -1.3521549428340158 0.8038105402436281 -2.4029829207981868
| 21> C -1.1167492598896132 1.9326683245173817 -1.757683633825831
| 22> C 1.8061340765209828 -2.2731765382179168 1.9143130423977957
| 23> C 2.0629482242395416 -1.084773854580921 2.544294385649305
| 24> S -2.640459159514722 1.0413112626335779 -4.013597350346105
| 25> S -2.1072476212885216 3.5774602504942843 -2.526901516318995
| 26> S 2.676679785597345 -1.0950568094040085 3.9710559663355878
| 27> S 2.131234666093715 -3.609696987498734 2.620947740229473
| 28> C -2.9794378140109945 2.785464435158174 -3.8659846539366067
| 29> C 2.6911987047184565 -2.8435593390370677 4.097138764156491
| 30> C -3.8185090371866046 3.4627882454810326 -4.714147116936066
| 31> C 3.1012255464841325 -3.5261580441761247 5.204017580164886
| 32> S -4.605131582752252 2.6451116974019784 -6.053272418880714
| 33> S -4.106910034103379 5.18380878285771 -4.506310178058237
| 34> S 3.1019601700126715 -5.328798960777663 5.298237170544167
| 35> S 3.653134537488727 -2.6990884752116315 6.712111863434398
| 36> C 2.3230699537755846 -3.317761043997094 7.851285112213695
| 37> C 1.8657661017881 -5.523153373486893 6.670610905943833
| 38> C 2.2528138353462177 -4.824247372087283 7.953677549461672
| 39> H 1.3673755649309953 -2.894155726743879 7.534695705486668
| 40> H 2.5763299226674135 -2.89952829126443 8.82902436974996
| 41> H 1.5043158693461343 -5.078367907696988 8.717558096197335
| 42> H 3.215953812683174 -5.209750249658724 8.302583769093113
| 43> H 1.8118451065489387 -6.600661912994088 6.846425365111703
| 44> H 0.8908787505614422 -5.185315271581679 6.3123923859851985
| 45> C -3.408420451944538 5.780174028283593 -6.107455288628073
| 46> C -3.8330788890526044 3.5868701461260737 -7.441365179689193
| 47> C -4.059658174922203 5.116317175993865 -7.346586692233372
| 48> H -2.7637604459694844 3.361418546263367 -7.433451367482889
| 49> H -4.260856190103933 3.1773169315360987 -8.360265133358395
| 50> H -5.134706193371212 5.322303876039077 -7.342100998714791
| 51> H -3.6401802802661796 5.583810097895506 -8.248208779685104
| 52> H -3.5566802475755552 6.863188821446186 -6.115598996471237
| 53> H -2.3336526730736096 5.58344904481086 -6.089697329975529
| 54> * 
| 55> 
| 56> % eprnmr
| 57> gtensor true
| 58> Nuclei = all H {aiso,adip,aorb,fgrad,rho}
| 59> Nuclei = all V {aiso,adip,aorb,fgrad,rho}
| 60> end
| 61> 
| 62>                          ****END OF INPUT****
================================================================================

------------------------------------------------------------------------------
                            SYMMETRY HANDLING SETUP
------------------------------------------------------------------------------

------------------
SYMMETRY DETECTION
------------------
The point group will now be determined using a tolerance of 1.0000e-02.
Splitting atom subsets according to nuclear charge, mass and basis set.
Splitting atom subsets according to distance from the molecule's center.
Identifying relative distance patterns of the atoms.
Splitting atom subsets according to atoms' relative distance patterns.
Bring atoms of each subset into input order.
The molecule is neither linear nor planar.
There is at least one atom subset not centered around the molecule's center.
The molecule does not have a center of inversion.
Analyzing the first atom subset for its symmetry.
The subset consists of a single off-center atom.
No testing is needed for point group C1.
This point group has been found:    C1
Largest non-degenerate subgroup:    C1


Mass-centered symmetry-perfected Cartesians (point group C1):

Atom          Symmetry-perfected Cartesians (x, y, z; au)
  0       1.759478673313    0.108485169525   -1.134865633145
  1       1.808537922373   -4.359898397957    0.191359282285
  2      -1.713328796056   -1.138004135315   -4.031075153123
  3       3.056362752589    1.251838524836    3.200047077642
  4      -0.569970563159    4.158794815344   -0.971277188941
  5       4.163844472241    0.519194991183   -2.888417695714
  6      -2.562285066389    1.520505424295   -4.540900026726
  7      -2.117432795256    3.653737480717   -3.321461099933
  8       3.406016231962   -4.294157471612    3.617606982799
  9       3.891324638467   -2.048401862721    4.808099191024
 10      -4.996827213092    1.969316746220   -7.584520205913
 11      -3.989203434397    6.761943768098   -4.775072235160
 12       5.051109209177   -2.067833831184    7.504287836921
 13       4.020367312231   -6.819815093138    4.952953038427
 14      -5.637404035335    5.265288577901   -7.305572635809
 15       5.078545990076   -5.372024756659    7.742549795002
 16      -7.223018853991    6.545245083396   -8.908367407950
 17       5.853384428570   -6.661949368741    9.834247620696
 18      -8.709520035878    5.000060341396  -11.438947487630
 19      -7.768017754914    9.797502569892   -8.515612512959
 20       5.854772665851  -10.068447018919   10.012296842964
 21       6.896341272418   -5.099014389698   12.684132800208
 22       4.382883468772   -6.268136111272   14.836858259490
 23       3.518704428528  -10.435723631859   12.605707356255
 24       4.250118645708   -9.114982695859   15.030351924074
 25       2.576882806130   -5.467638072791   14.238590983876
 26       4.861475450663   -5.477790748372   16.684517686617
 27       2.835662478171   -9.595200913167   16.473876956434
 28       6.070189431506   -9.843477558308   15.689689125599
 29       3.416808514658  -12.471919678489   12.937948534466
 30       1.676434323286   -9.797302141654   11.928772457435
 31      -6.448063737236   10.924469559535  -11.541338272603
 32      -7.250551883830    6.779725893791  -14.062062654037
 33      -7.678724681743    9.669961916581  -13.882957269358
 34      -5.229832876452    6.353684113596  -14.047107716292
 35      -8.058933829125    6.005782480949  -15.798531910945
 36      -9.710271017426   10.059220366896  -13.874480537087
 37      -6.886026341609   10.553395508521  -15.586776090936
 38      -6.728234147650   12.971070917598  -11.556727650141
 39      -4.417046977608   10.552713217072  -11.507780594052


------------------
SYMMETRY REDUCTION
------------------
ORCA supports only abelian point groups.
It is now checked, if the determined point group is supported:
Point Group ( C1    ) is          ... supported

The point group is C1 - hence turning off symmetry
If this is a round-off problem, please increase the symmetry
        detection tolerance (%method SymThresh)

Storing the symmetry object:
Symmetry file                     ... input_65.sym.tmp
Writing symmetry information      ... done

                       ****************************
                       * Single Point Calculation *
                       ****************************

---------------------------------
CARTESIAN COORDINATES (ANGSTROEM)
---------------------------------
  V      0.931076    0.057408   -0.600545
  S      0.957037   -2.307159    0.101263
  S     -0.906655   -0.602206   -2.133153
  S      1.617358    0.662444    1.693392
  S     -0.301615    2.200739   -0.513978
  O      2.203412    0.274746   -1.528485
  C     -1.355903    0.804617   -2.402941
  C     -1.120497    1.933475   -1.757642
  C      1.802386   -2.272370    1.914355
  C      2.059200   -1.083968    2.544337
  S     -2.644207    1.042118   -4.013555
  S     -2.110996    3.578267   -2.526859
  S      2.672932   -1.094251    3.971098
  S      2.127487   -3.608891    2.620990
  C     -2.983186    2.786271   -3.865943
  C      2.687451   -2.842753    4.097181
  C     -3.822257    3.463595   -4.714105
  C      3.097478   -3.525352    5.204060
  S     -4.608879    2.645918   -6.053230
  S     -4.110658    5.184615   -4.506268
  S      3.098212   -5.327993    5.298279
  S      3.649387   -2.698282    6.712154
  C      2.319322   -3.316955    7.851327
  C      1.862018   -5.522347    6.670653
  C      2.249066   -4.823441    7.953720
  H      1.363628   -2.893349    7.534738
  H      2.572582   -2.898722    8.829066
  H      1.500568   -5.077562    8.717600
  H      3.212206   -5.208944    8.302626
  H      1.808097   -6.599856    6.846467
  H      0.887131   -5.184509    6.312435
  C     -3.412168    5.780980   -6.107413
  C     -3.836827    3.587676   -7.441323
  C     -4.063406    5.117123   -7.346545
  H     -2.767508    3.362225   -7.433409
  H     -4.264604    3.178123   -8.360223
  H     -5.138454    5.323110   -7.342059
  H     -3.643928    5.584616   -8.248167
  H     -3.560428    6.863995   -6.115557
  H     -2.337401    5.584255   -6.089655

----------------------------
CARTESIAN COORDINATES (A.U.)
----------------------------
  NO LB      ZA    FRAG     MASS         X           Y           Z
   0 V    23.0000    0    50.940    1.759479    0.108485   -1.134866
   1 S    16.0000    0    32.060    1.808538   -4.359898    0.191359
   2 S    16.0000    0    32.060   -1.713329   -1.138004   -4.031075
   3 S    16.0000    0    32.060    3.056363    1.251839    3.200047
   4 S    16.0000    0    32.060   -0.569971    4.158795   -0.971277
   5 O     8.0000    0    15.999    4.163844    0.519195   -2.888418
   6 C     6.0000    0    12.011   -2.562285    1.520505   -4.540900
   7 C     6.0000    0    12.011   -2.117433    3.653737   -3.321461
   8 C     6.0000    0    12.011    3.406016   -4.294157    3.617607
   9 C     6.0000    0    12.011    3.891325   -2.048402    4.808099
  10 S    16.0000    0    32.060   -4.996827    1.969317   -7.584520
  11 S    16.0000    0    32.060   -3.989203    6.761944   -4.775072
  12 S    16.0000    0    32.060    5.051109   -2.067834    7.504288
  13 S    16.0000    0    32.060    4.020367   -6.819815    4.952953
  14 C     6.0000    0    12.011   -5.637404    5.265289   -7.305573
  15 C     6.0000    0    12.011    5.078546   -5.372025    7.742550
  16 C     6.0000    0    12.011   -7.223019    6.545245   -8.908367
  17 C     6.0000    0    12.011    5.853384   -6.661949    9.834248
  18 S    16.0000    0    32.060   -8.709520    5.000060  -11.438947
  19 S    16.0000    0    32.060   -7.768018    9.797503   -8.515613
  20 S    16.0000    0    32.060    5.854773  -10.068447   10.012297
  21 S    16.0000    0    32.060    6.896341   -5.099014   12.684133
  22 C     6.0000    0    12.011    4.382883   -6.268136   14.836858
  23 C     6.0000    0    12.011    3.518704  -10.435724   12.605707
  24 C     6.0000    0    12.011    4.250119   -9.114983   15.030352
  25 H     1.0000    0     1.008    2.576883   -5.467638   14.238591
  26 H     1.0000    0     1.008    4.861475   -5.477791   16.684518
  27 H     1.0000    0     1.008    2.835662   -9.595201   16.473877
  28 H     1.0000    0     1.008    6.070189   -9.843478   15.689689
  29 H     1.0000    0     1.008    3.416809  -12.471920   12.937949
  30 H     1.0000    0     1.008    1.676434   -9.797302   11.928772
  31 C     6.0000    0    12.011   -6.448064   10.924470  -11.541338
  32 C     6.0000    0    12.011   -7.250552    6.779726  -14.062063
  33 C     6.0000    0    12.011   -7.678725    9.669962  -13.882957
  34 H     1.0000    0     1.008   -5.229833    6.353684  -14.047108
  35 H     1.0000    0     1.008   -8.058934    6.005782  -15.798532
  36 H     1.0000    0     1.008   -9.710271   10.059220  -13.874481
  37 H     1.0000    0     1.008   -6.886026   10.553396  -15.586776
  38 H     1.0000    0     1.008   -6.728234   12.971071  -11.556728
  39 H     1.0000    0     1.008   -4.417047   10.552713  -11.507781

--------------------------------
INTERNAL COORDINATES (ANGSTROEM)
--------------------------------
 V      0   0   0     0.000000000000     0.00000000     0.00000000
 S      1   0   0     2.466654478967     0.00000000     0.00000000
 S      1   2   0     2.482182785768    85.91277620     0.00000000
 S      1   2   3     2.469655541385    88.14614549   148.13146513
 S      1   2   3     2.474043699504   145.66573277    71.77772533
 O      1   2   3     1.589699972487   106.78095369   254.95436932
 C      3   1   2     1.501252631794    94.78921281   164.65654826
 C      7   3   1     1.321418519034   131.25976828   342.77113962
 C      2   1   3     2.000782014325   104.21770593   202.31994689
 C      9   2   1     1.369354204649   120.74573044     8.18578296
 S      7   3   1     2.076105293216   115.61441072   166.01433972
 S      8   7   3     2.068362549081   114.35640422   183.74725898
 S     10   9   2     1.553196953605   119.40420658   177.97938519
 S      9   2   1     1.546386077558   119.20197163   186.38886568
 C     11   7   3     1.782909511325    99.53567678   176.02744982
 C     13  10   9     1.753102611672    94.35528760   358.17857385
 C     15  11   7     1.371928432985   123.23447347   180.68886456
 C     16  13  10     1.363540874545   124.06731088   182.36590162
 S     17  15  11     1.755171370772   121.04999013   358.62869754
 S     17  15  11     1.757351136870   120.71379591   179.92683461
 S     18  16  13     1.805101699376   122.84843830   179.98025678
 S     18  16  13     1.806376476123   122.71022207     1.42921533
 C     22  18  16     1.857294601012    98.09139132   116.61890697
 C     21  18  16     1.857245024672    98.21004545   243.22230197
 C     24  21  18     1.511468014400   114.10656975   301.77130253
 H     23  22  18     1.092255502218   108.64048489   293.67785109
 H     23  22  18     1.093175787799   104.78742021   178.12679659
 H     25  24  21     1.099245168925   107.97734522   185.05327085
 H     25  24  21     1.094525757878   109.45556925   301.47197141
 H     24  21  18     1.093088674578   104.76408354   182.17024856
 H     24  21  18     1.092181504477   108.62644787    66.63279117
 C     20  17  15     1.845861551536    98.72628080   117.08005796
 C     19  17  15     1.846557838304    98.54304847   243.03302702
 C     33  19  17     1.549041429930   113.35368290   303.41610424
 H     33  19  17     1.092855427320   107.36410894    65.44184071
 H     33  19  17     1.093208296588   106.09244145   180.91497425
 H     34  33  19     1.094613577484   109.25109025   301.15678826
 H     34  33  19     1.098832892079   108.30169800   184.52654732
 H     32  20  17     1.093146069465   105.97559243   178.38051122
 H     32  20  17     1.092767972955   107.45258790   293.85170164

---------------------------
INTERNAL COORDINATES (A.U.)
---------------------------
 V      0   0   0     0.000000000000     0.00000000     0.00000000
 S      1   0   0     4.661301432258     0.00000000     0.00000000
 S      1   2   0     4.690645679434    85.91277620     0.00000000
 S      1   2   3     4.666972618339    88.14614549   148.13146513
 S      1   2   3     4.675265035417   145.66573277    71.77772533
 O      1   2   3     3.004097583102   106.78095369   254.95436932
 C      3   1   2     2.836956331920    94.78921281   164.65654826
 C      7   3   1     2.497119109265   131.25976828   342.77113962
 C      2   1   3     3.780930060749   104.21770593   202.31994689
 C      9   2   1     2.587704427120   120.74573044     8.18578296
 S      7   3   1     3.923270429363   115.61441072   166.01433972
 S      8   7   3     3.908638763422   114.35640422   183.74725898
 S     10   9   2     2.935116874355   119.40420658   177.97938519
 S      9   2   1     2.922246183894   119.20197163   186.38886568
 C     11   7   3     3.369210697968    99.53567678   176.02744982
 C     13  10   9     3.312883820723    94.35528760   358.17857385
 C     15  11   7     2.592569013682   123.23447347   180.68886456
 C     16  13  10     2.576718825297   124.06731088   182.36590162
 S     17  15  11     3.316793208859   121.04999013   358.62869754
 S     17  15  11     3.320912369819   120.71379591   179.92683461
 S     18  16  13     3.411147855696   122.84843830   179.98025678
 S     18  16  13     3.413556834629   122.71022207     1.42921533
 C     22  18  16     3.509778145924    98.09139132   116.61890697
 C     21  18  16     3.509684460217    98.21004545   243.22230197
 C     24  21  18     2.856260607397   114.10656975   301.77130253
 H     23  22  18     2.064063767461   108.64048489   293.67785109
 H     23  22  18     2.065802855173   104.78742021   178.12679659
 H     25  24  21     2.077272323305   107.97734522   185.05327085
 H     25  24  21     2.068353928912   109.45556925   301.47197141
 H     24  21  18     2.065638235044   104.76408354   182.17024856
 H     24  21  18     2.063923931996   108.62644787    66.63279117
 C     20  17  15     3.488172813538    98.72628080   117.08005796
 C     19  17  15     3.489488604840    98.54304847   243.03302702
 C     33  19  17     2.927264072666   113.35368290   303.41610424
 H     33  19  17     2.065197461604   107.36410894    65.44184071
 H     33  19  17     2.065864287882   106.09244145   180.91497425
 H     34  33  19     2.068519883917   109.25109025   301.15678826
 H     34  33  19     2.076493232973   108.30169800   184.52654732
 H     32  20  17     2.065746695661   105.97559243   178.38051122
 H     32  20  17     2.065032196806   107.45258790   293.85170164

---------------------
BASIS SET INFORMATION
---------------------
There are 5 groups of distinct atoms

 Group   1 Type V   : 17s11p5d1f contracted to 17s7p3d1f pattern {11111111111111111/3311111/311/1}
 Group   2 Type S   : 14s9p1d contracted to 5s4p1d pattern {73211/6111/1}
 Group   3 Type O   : 11s6p1d contracted to 5s3p1d pattern {62111/411/1}
 Group   4 Type C   : 11s6p1d contracted to 5s3p1d pattern {62111/411/1}
 Group   5 Type H   : 5s1p contracted to 3s1p pattern {311/1}

Atom   0V    basis set group =>   1
Atom   1S    basis set group =>   2
Atom   2S    basis set group =>   2
Atom   3S    basis set group =>   2
Atom   4S    basis set group =>   2
Atom   5O    basis set group =>   3
Atom   6C    basis set group =>   4
Atom   7C    basis set group =>   4
Atom   8C    basis set group =>   4
Atom   9C    basis set group =>   4
Atom  10S    basis set group =>   2
Atom  11S    basis set group =>   2
Atom  12S    basis set group =>   2
Atom  13S    basis set group =>   2
Atom  14C    basis set group =>   4
Atom  15C    basis set group =>   4
Atom  16C    basis set group =>   4
Atom  17C    basis set group =>   4
Atom  18S    basis set group =>   2
Atom  19S    basis set group =>   2
Atom  20S    basis set group =>   2
Atom  21S    basis set group =>   2
Atom  22C    basis set group =>   4
Atom  23C    basis set group =>   4
Atom  24C    basis set group =>   4
Atom  25H    basis set group =>   5
Atom  26H    basis set group =>   5
Atom  27H    basis set group =>   5
Atom  28H    basis set group =>   5
Atom  29H    basis set group =>   5
Atom  30H    basis set group =>   5
Atom  31C    basis set group =>   4
Atom  32C    basis set group =>   4
Atom  33C    basis set group =>   4
Atom  34H    basis set group =>   5
Atom  35H    basis set group =>   5
Atom  36H    basis set group =>   5
Atom  37H    basis set group =>   5
Atom  38H    basis set group =>   5
Atom  39H    basis set group =>   5

-------------------------
BASIS SET IN INPUT FORMAT
-------------------------

 # Basis set for element : H 
 NewGTO H 
 S 3 
   1      34.0613410000      0.0254393168
   2       5.1235746000      0.1900859340
   3       1.1646626000      0.8524411390
 S 1 
   1       0.3272304100      1.0000000000
 S 1 
   1       0.1030724100      1.0000000000
 P 1 
   1       0.8000000000      1.0000000000
  end;

 # Basis set for element : C 
 NewGTO C 
 S 6 
   1   13575.3496820000      0.0006064601
   2    2035.2333680000      0.0046978985
   3     463.2256235900      0.0243324735
   4     131.2001959800      0.0973999560
   5      42.8530158900      0.3019558443
   6      15.5841857700      0.6623361013
 S 2 
   1       6.2067138500      0.6559530795
   2       2.5764896500      0.3758563390
 S 1 
   1       0.5769633900      1.0000000000
 S 1 
   1       0.2297283100      1.0000000000
 S 1 
   1       0.0951644400      1.0000000000
 P 4 
   1      34.6972322400      0.0113272290
   2       7.9582622800      0.0761696612
   3       2.3780826900      0.3019225154
   4       0.8143320800      0.7278502776
 P 1 
   1       0.2888754700      1.0000000000
 P 1 
   1       0.1005682400      1.0000000000
 D 1 
   1       0.8000000000      1.0000000000
  end;

 # Basis set for element : O 
 NewGTO O 
 S 6 
   1   27032.3826310000      0.0005722654
   2    4052.3871392000      0.0044353333
   3     922.3272271000      0.0230201034
   4     261.2407098900      0.0928224938
   5      85.3546413500      0.2937849971
   6      31.0350352400      0.6740160462
 S 2 
   1      12.2608607300      0.6383993750
   2       4.9987076000      0.3953458663
 S 1 
   1       1.1703108200      1.0000000000
 S 1 
   1       0.4647474100      1.0000000000
 S 1 
   1       0.1850453600      1.0000000000
 P 4 
   1      63.2749548000      0.0120183316
   2      14.6270493800      0.0830054304
   3       4.4501223500      0.3199174388
   4       1.5275799600      0.7071554258
 P 1 
   1       0.5293511800      1.0000000000
 P 1 
   1       0.1747842100      1.0000000000
 D 1 
   1       1.2000000000      1.0000000000
  end;

 # Basis set for element : S 
 NewGTO S 
 S 7 
   1   60700.9281040000      0.0005238013
   2    9102.6106854000      0.0040506304
   3    2071.4166009000      0.0208270003
   4     586.0247682100      0.0814968475
   5     190.5539502100      0.2374911358
   6      67.6303842600      0.4472617145
   7      25.1273069100      0.3489191913
 S 3 
   1     112.5746301000      0.1004556993
   2      34.7955542200      0.4339117282
   3       6.5115556200     -1.2084330582
 S 2 
   1       3.2399032300      0.6749812922
   2       1.5477160900      0.3470879597
 S 1 
   1       0.4054103000      1.0000000000
 S 1 
   1       0.1455065100      1.0000000000
 P 6 
   1     564.3671602700      0.0025564845
   2     133.4262437900      0.0202874255
   3      42.4682711900      0.0927670112
   4      15.6165275800      0.2650208365
   5       6.1093988500      0.4486298663
   6       2.4404160200      0.3596369916
 P 1 
   1       0.8388220100      1.0000000000
 P 1 
   1       0.3128874700      1.0000000000
 P 1 
   1       0.1077010900      1.0000000000
 D 1 
   1       0.5500000000      1.0000000000
  end;

 # Basis set for element : V 
 NewGTO V 
 S 1 
   1  4239814.9912500000      1.0000000000
 S 1 
   1  1695925.9965000001      1.0000000000
 S 1 
   1  678370.3986000001      1.0000000000
 S 1 
   1  271348.1594400000      1.0000000000
 S 1 
   1   40672.0050780000      1.0000000000
 S 1 
   1    9257.0761385000      1.0000000000
 S 1 
   1    2622.7328773000      1.0000000000
 S 1 
   1     858.5948018500      1.0000000000
 S 1 
   1     314.1941865000      1.0000000000
 S 1 
   1     124.4786212700      1.0000000000
 S 1 
   1      50.4693993090      1.0000000000
 S 1 
   1      12.5138469110      1.0000000000
 S 1 
   1       5.3447758082      1.0000000000
 S 1 
   1       1.5755631295      1.0000000000
 S 1 
   1       0.6306903307      1.0000000000
 S 1 
   1       0.0879544416      1.0000000000
 S 1 
   1       0.0342969197      1.0000000000
 P 3 
   1    1450.0319327000     -0.0222847647
   2     343.7504988400     -0.1817959329
   3     110.8252170800     -0.8607412073
 P 3 
   1      41.8224645460     -0.2522537814
   2      17.0880737100     -0.4620379520
   3       7.2613218939     -0.3990010670
 P 1 
   1       2.9458145262      1.0000000000
 P 1 
   1       1.1650209680      1.0000000000
 P 1 
   1       0.4339937839      1.0000000000
 D 3 
   1      27.3603358640      0.0575501019
   2       7.4542765527      0.3023798347
   3       2.4632270217      0.7724212088
 D 1 
   1       0.8249954244      1.0000000000
 D 1 
   1       0.2526297057      1.0000000000
 P 1 
   1       0.1112480000      1.0000000000
 P 1 
   1       0.0363780000      1.0000000000
 F 1 
   1       1.8000000000      1.0000000000
  end;

---------------------------------
AUXILIARY/J BASIS SET INFORMATION
---------------------------------
There are 5 groups of distinct atoms

 Group   1 Type V   : 19s5p5d3f3g contracted to 8s5p5d2f3g pattern {121111111/11111/11111/21/111}
 Group   2 Type S   : 14s5p5d2f1g contracted to 8s4p3d1f1g pattern {71111111/2111/311/2/1}
 Group   3 Type O   : 12s5p4d2f1g contracted to 6s4p3d1f1g pattern {711111/2111/211/2/1}
 Group   4 Type C   : 12s5p4d2f1g contracted to 6s4p3d1f1g pattern {711111/2111/211/2/1}
 Group   5 Type H   : 5s2p1d contracted to 3s1p1d pattern {311/2/1}

Atom   0V    basis set group =>   1
Atom   1S    basis set group =>   2
Atom   2S    basis set group =>   2
Atom   3S    basis set group =>   2
Atom   4S    basis set group =>   2
Atom   5O    basis set group =>   3
Atom   6C    basis set group =>   4
Atom   7C    basis set group =>   4
Atom   8C    basis set group =>   4
Atom   9C    basis set group =>   4
Atom  10S    basis set group =>   2
Atom  11S    basis set group =>   2
Atom  12S    basis set group =>   2
Atom  13S    basis set group =>   2
Atom  14C    basis set group =>   4
Atom  15C    basis set group =>   4
Atom  16C    basis set group =>   4
Atom  17C    basis set group =>   4
Atom  18S    basis set group =>   2
Atom  19S    basis set group =>   2
Atom  20S    basis set group =>   2
Atom  21S    basis set group =>   2
Atom  22C    basis set group =>   4
Atom  23C    basis set group =>   4
Atom  24C    basis set group =>   4
Atom  25H    basis set group =>   5
Atom  26H    basis set group =>   5
Atom  27H    basis set group =>   5
Atom  28H    basis set group =>   5
Atom  29H    basis set group =>   5
Atom  30H    basis set group =>   5
Atom  31C    basis set group =>   4
Atom  32C    basis set group =>   4
Atom  33C    basis set group =>   4
Atom  34H    basis set group =>   5
Atom  35H    basis set group =>   5
Atom  36H    basis set group =>   5
Atom  37H    basis set group =>   5
Atom  38H    basis set group =>   5
Atom  39H    basis set group =>   5

-------------------------------------
AUXILIARY/J BASIS SET IN INPUT FORMAT
-------------------------------------

 # Auxiliary/J basis set for element : H 
 NewAuxJGTO H 
 S 3 
   1      15.6752927000      0.1007184237
   2       3.6063578000      0.3404257499
   3       1.2080016000      0.6491996172
 S 1 
   1       0.4726794000      1.0000000000
 S 1 
   1       0.2018100000      1.0000000000
 P 2 
   1       2.0281365000      0.5596620919
   2       0.5358730000      0.5596620919
 D 1 
   1       2.2165124000      1.0000000000
  end;

 # Auxiliary/J basis set for element : C 
 NewAuxJGTO C 
 S 7 
   1    1861.0916331000      0.0134602335
   2     642.9939764000      0.0299160374
   3     235.1105725000      0.1008649584
   4      90.7028894000      0.2370970548
   5      36.7794552000      0.3924037254
   6      15.6046273000      0.3195862154
   7       6.8907294000      0.0530104441
 S 1 
   1       3.1478850000     -1.0000000000
 S 1 
   1       1.4777287000      1.0000000000
 S 1 
   1       0.7076466000      1.0000000000
 S 1 
   1       0.3430122000      1.0000000000
 S 1 
   1       0.1669453000      1.0000000000
 P 2 
   1      13.5472892000     -0.6769313712
   2       5.4669419000     -0.3779500978
 P 1 
   1       2.1751721000      1.0000000000
 P 1 
   1       0.8582194000      1.0000000000
 P 1 
   1       0.3376720000      1.0000000000
 D 2 
   1       5.9287253000     -0.3533329857
   2       1.9809209000     -0.7456525731
 D 1 
   1       0.8055417000     -1.0000000000
 D 1 
   1       0.3531244000     -1.0000000000
 F 2 
   1       1.6755626000      0.6311076882
   2       0.5997536000      0.4968166032
 G 1 
   1       1.0024600000     -1.0000000000
  end;

 # Auxiliary/J basis set for element : O 
 NewAuxJGTO O 
 S 7 
   1    2876.8216605000      0.0168151159
   2    1004.7443032000      0.0340137548
   3     369.7579954000      0.1194951309
   4     142.9442404000      0.2664627624
   5      57.8366425000      0.4202764046
   6      24.3864983000      0.2765077335
   7      10.6622662000      0.0057008815
 S 1 
   1       4.8070437000     -1.0000000000
 S 1 
   1       2.2210770000      1.0000000000
 S 1 
   1       1.0447795000      1.0000000000
 S 1 
   1       0.4968425000      1.0000000000
 S 1 
   1       0.2371384000      1.0000000000
 P 2 
   1      64.2613382000     -0.2731534179
   2      16.3006076000     -0.8168011598
 P 1 
   1       4.3550542000      1.0000000000
 P 1 
   1       1.2019554000      1.0000000000
 P 1 
   1       0.3354196000      1.0000000000
 D 2 
   1       9.2146611000     -0.4661230638
   2       2.8435251000     -0.6600908911
 D 1 
   1       0.9955759000     -1.0000000000
 D 1 
   1       0.3649441000     -1.0000000000
 F 2 
   1       2.6420115000      0.5931563945
   2       0.7345613000      0.5931563945
 G 1 
   1       1.3931000000     -1.0000000000
  end;

 # Auxiliary/J basis set for element : S 
 NewAuxJGTO S 
 S 7 
   1    7399.0303145000      0.0295137551
   2    2710.1675859000      0.0559686311
   3    1034.3279062000      0.1764696370
   4     410.4645411000      0.3577969368
   5     168.9762502000      0.4299293578
   6      71.9687889000      0.1259148089
   7      31.6172683000     -0.0646025788
 S 1 
   1      14.2796836000      1.0000000000
 S 1 
   1       6.6060948000      1.0000000000
 S 1 
   1       3.1181477000      1.0000000000
 S 1 
   1       1.4954039000     -1.0000000000
 S 1 
   1       0.7254779000      1.0000000000
 S 1 
   1       0.3544216000      1.0000000000
 S 1 
   1       0.1735525000      1.0000000000
 P 2 
   1      12.6998799000      1.4059102813
   2       4.4295784000     -1.2124994202
 P 1 
   1       1.5232889000      1.0000000000
 P 1 
   1       0.5194667000     -1.0000000000
 P 1 
   1       0.1766547000     -1.0000000000
 D 3 
   1      16.8546461000      1.0295742104
   2       5.0810461000     -0.7461553923
   3       1.5102323000      0.8357028005
 D 1 
   1       0.4451331000      1.0000000000
 D 1 
   1       0.1308362000      1.0000000000
 F 2 
   1       1.0809860000      0.5572698934
   2       0.4161474000      0.5572698934
 G 1 
   1       0.6707100000     -1.0000000000
  end;

 # Auxiliary/J basis set for element : V 
 NewAuxJGTO V 
 S 12 
   1   11942.0842430000      0.0459866720
   2    2430.7110193000      0.1744615821
   3     841.0764301000      0.2900402792
   4     494.7508273000      0.1411212903
   5     291.0298903000      0.2660697186
   6     171.1940483000      0.0446365706
   7      59.2366916000     -0.0408204801
   8      34.8451117000      0.1394665381
   9      20.4971240000      0.2164746715
  10      12.0571314000      0.0864266611
  11       7.0924300000     -0.0568501658
  12       4.1720176000     -0.0126212852
 S 1 
   1       2.4541279000      1.0000000000
 S 1 
   1       1.4436046000      1.0000000000
 S 1 
   1       0.8491792000      1.0000000000
 S 1 
   1       0.2938336000      1.0000000000
 S 1 
   1       0.1728433000      1.0000000000
 S 1 
   1       0.1016725000      1.0000000000
 S 1 
   1       0.0598074000      1.0000000000
 P 1 
   1      16.7130979000     -1.0000000000
 P 1 
   1       4.7454037000     -1.0000000000
 P 1 
   1       1.3889998000      1.0000000000
 P 1 
   1       0.4142440000     -1.0000000000
 P 1 
   1       0.1243234000      1.0000000000
 D 1 
   1       7.7143225000      1.0000000000
 D 1 
   1       3.1170731000      1.0000000000
 D 1 
   1       1.2767950000     -1.0000000000
 D 1 
   1       0.5273386000      1.0000000000
 D 1 
   1       0.2184050000      1.0000000000
 F 2 
   1       3.1309344000     -1.0825667766
   2       1.0419780000      0.1809223232
 F 1 
   1       0.3559044000      1.0000000000
 G 1 
   1       8.7130110000      1.0000000000
 G 1 
   1       2.7493872000      1.0000000000
 G 1 
   1       0.8775089000      1.0000000000
  end;



           ************************************************************
           *        Program running with 8 parallel MPI-processes     *
           *              working on a common directory               *
           ************************************************************
------------------------------------------------------------------------------
                           ORCA GTO INTEGRAL CALCULATION
                           -- RI-GTO INTEGRALS CHOSEN --
------------------------------------------------------------------------------
------------------------------------------------------------------------------
                   ___                                                        
                  /   \      - P O W E R E D   B Y -                         
                 /     \                                                     
                 |  |  |   _    _      __       _____    __    __             
                 |  |  |  | |  | |    /  \     |  _  \  |  |  /  |          
                  \  \/   | |  | |   /    \    | | | |  |  | /  /          
                 / \  \   | |__| |  /  /\  \   | |_| |  |  |/  /          
                |  |  |   |  __  | /  /__\  \  |    /   |      \           
                |  |  |   | |  | | |   __   |  |    \   |  |\   \          
                \     /   | |  | | |  |  |  |  | |\  \  |  | \   \       
                 \___/    |_|  |_| |__|  |__|  |_| \__\ |__|  \__/        
                                                                              
                      - O R C A' S   B I G   F R I E N D -                    
                                      &                                       
                       - I N T E G R A L  F E E D E R -                       
                                                                              
 v1 FN, 2020, v2 2021                                                         
------------------------------------------------------------------------------


Reading SHARK input file input_65.SHARKINP.tmp ... ok
----------------------
SHARK INTEGRAL PACKAGE
----------------------

Number of atoms                             ...     40
Number of basis functions                   ...    681
Number of shells                            ...    331
Maximum angular momentum                    ...      3
Integral batch strategy                     ... SHARK/LIBINT Hybrid
RI-J (if used) integral strategy            ... SPLIT-RIJ (Revised 2003 algorithm where possible)
Printlevel                                  ...      1
Contraction scheme used                     ... SEGMENTED contraction
Coulomb Range Separation                    ... NOT USED
Exchange Range Separation                   ... NOT USED
Finite Nucleus Model                        ... NOT USED
Auxiliary Coulomb fitting basis             ... AVAILABLE
   # of basis functions in Aux-J            ...   1568
   # of shells in Aux-J                     ...    512
   Maximum angular momentum in Aux-J        ...      4
Auxiliary J/K fitting basis                 ... NOT available
Auxiliary Correlation fitting basis         ... NOT available
Auxiliary 'external' fitting basis          ... NOT available
Integral threshold                          ...     1.000000e-10
Primitive cut-off                           ...     1.000000e-11
Primitive pair pre-selection threshold      ...     1.000000e-11

Calculating pre-screening integrals         ... done (  0.1 sec) Dimension = 331
Organizing shell pair data                  ... done (  0.1 sec)
Shell pair information
Total number of shell pairs                 ...     54946
Shell pairs after pre-screening             ...     22648
Total number of primitive shell pairs       ...    221635
Primitive shell pairs kept                  ...     55333
          la=0 lb=0:   6409 shell pairs
          la=1 lb=0:   9061 shell pairs
          la=1 lb=1:   3185 shell pairs
          la=2 lb=0:   2141 shell pairs
          la=2 lb=1:   1529 shell pairs
          la=2 lb=2:    199 shell pairs
          la=3 lb=0:     57 shell pairs
          la=3 lb=1:     54 shell pairs
          la=3 lb=2:     12 shell pairs
          la=3 lb=3:      1 shell pairs

Calculating one electron integrals          ... done (  0.0 sec)
Calculating RI/J V-Matrix + Cholesky decomp.... done (  0.1 sec)
Calculating Nuclear repulsion               ... done (  0.0 sec) ENN=   5068.461438242173 Eh

SHARK setup successfully completed in   0.7 seconds

Maximum memory used throughout the entire GTOINT-calculation: 39.7 MB


           ************************************************************
           *        Program running with 8 parallel MPI-processes     *
           *              working on a common directory               *
           ************************************************************
-------------------------------------------------------------------------------
                                 ORCA SCF
-------------------------------------------------------------------------------

------------
SCF SETTINGS
------------
Hamiltonian:
 Density Functional     Method          .... DFT(GTOs)
 Exchange Functional    Exchange        .... B88
   X-Alpha parameter    XAlpha          ....  0.666667
   Becke's b parameter  XBeta           ....  0.004200
 Correlation Functional Correlation     .... LYP
 LDA part of GGA corr.  LDAOpt          .... VWN-5
 Gradients option       PostSCFGGA      .... off
 Hybrid DFT is turned on
   Fraction HF Exchange ScalHFX         ....  0.200000
   Scaling of DF-GGA-X  ScalDFX         ....  0.720000
   Scaling of DF-GGA-C  ScalDFC         ....  0.810000
   Scaling of DF-LDA-C  ScalLDAC        ....  1.000000
   Perturbative correction              ....  0.000000
   Density functional embedding theory  .... OFF
   NL short-range parameter             ....  4.800000
 RI-approximation to the Coulomb term is turned on
   Number of AuxJ basis functions       .... 1568
   RIJ-COSX (HFX calculated with COS-X)).... on


General Settings:
 Integral files         IntName         .... input_65
 Hartree-Fock type      HFTyp           .... UHF
 Total Charge           Charge          ....   -2
 Multiplicity           Mult            ....    2
 Number of Electrons    NEL             ....  321
 Basis Dimension        Dim             ....  681
 Nuclear Repulsion      ENuc            ....   5068.4614382422 Eh

Convergence Acceleration:
 DIIS                   CNVDIIS         .... on
   Start iteration      DIISMaxIt       ....    12
   Startup error        DIISStart       ....  0.200000
   # of expansion vecs  DIISMaxEq       ....     5
   Bias factor          DIISBfac        ....   1.050
   Max. coefficient     DIISMaxC        ....  10.000
 Trust-Rad. Augm. Hess. CNVTRAH         .... auto
   Auto Start mean grad. ratio tolernc. ....  1.125000
   Auto Start start iteration           ....    20
   Auto Start num. interpolation iter.  ....    10
   Max. Number of Micro iterations      ....    16
   Max. Number of Macro iterations      .... Maxiter - #DIIS iter
   Number of Davidson start vectors     ....     2
   Converg. threshold I  (grad. norm)   ....   5.000e-05
   Converg. threshold II (energy diff.) ....   1.000e-06
   Grad. Scal. Fac. for Micro threshold ....   0.100
   Minimum threshold for Micro iter.    ....   0.010
   NR start threshold (gradient norm)   ....   0.001
   Initial trust radius                 ....   0.400
   Minimum AH scaling param. (alpha)    ....   1.000
   Maximum AH scaling param. (alpha)    .... 1000.000
   Orbital update algorithm             .... Taylor
   White noise on init. David. guess    .... on
   Maximum white noise                  ....   0.010
   Quad. conv. algorithm                .... NR
 SOSCF                  CNVSOSCF        .... off
 Level Shifting         CNVShift        .... on
   Level shift para.    LevelShift      ....    0.2500
   Turn off err/grad.   ShiftErr        ....    0.0010
 Zerner damping         CNVZerner       .... off
 Static damping         CNVDamp         .... on
   Fraction old density DampFac         ....    0.7000
   Max. Damping (<1)    DampMax         ....    0.9800
   Min. Damping (>=0)   DampMin         ....    0.0000
   Turn off err/grad.   DampErr         ....    0.1000
 Fernandez-Rico         CNVRico         .... off

SCF Procedure:
 Maximum # iterations   MaxIter         ....   125
 SCF integral mode      SCFMode         .... Direct
   Integral package                     .... SHARK and LIBINT hybrid scheme
 Reset frequency        DirectResetFreq ....    20
 Integral Threshold     Thresh          ....  1.000e-10 Eh
 Primitive CutOff       TCut            ....  1.000e-11 Eh

Convergence Tolerance:
 Convergence Check Mode ConvCheckMode   .... Total+1el-Energy
 Convergence forced     ConvForced      .... 0
 Energy Change          TolE            ....  1.000e-06 Eh
 1-El. energy change                    ....  1.000e-03 Eh
 DIIS Error             TolErr          ....  1.000e-06


Diagonalization of the overlap matrix:
Smallest eigenvalue                        ... 7.567e-05
Time for diagonalization                   ...    0.250 sec
Threshold for overlap eigenvalues          ... 1.000e-08
Number of eigenvalues below threshold      ... 0
Time for construction of square roots      ...    0.158 sec
Total time needed                          ...    0.412 sec

Time for model grid setup =    0.354 sec

------------------------------
INITIAL GUESS: MODEL POTENTIAL
------------------------------
Loading Hartree-Fock densities                     ... done
Calculating cut-offs                               ... done
Initializing the effective Hamiltonian             ... done
Setting up the integral package (SHARK)            ... done
Starting the Coulomb interaction                   ... done (   0.3 sec)
Reading the grid                                   ... done
Mapping shells                                     ... done
Starting the XC term evaluation                    ... done (   0.1 sec)
  promolecular density results
     # of electrons  =    318.997491938
     EX              =   -428.378247795
     EC              =    -12.542269053
     EX+EC           =   -440.920516848
Transforming the Hamiltonian                       ... done (   0.2 sec)
Diagonalizing the Hamiltonian                      ... done (   0.2 sec)
Back transforming the eigenvectors                 ... done (   0.1 sec)
Now organizing SCF variables                       ... done
                      ------------------
                      INITIAL GUESS DONE (   1.3 sec)
                      ------------------
-------------------
DFT GRID GENERATION
-------------------

General Integration Accuracy     IntAcc      ... 4.388
Radial Grid Type                 RadialGrid  ... OptM3 with GC (2021)
Angular Grid (max. ang.)         AngularGrid ... 4 (Lebedev-302)
Angular grid pruning method      GridPruning ... 4 (adaptive)
Weight generation scheme         WeightScheme... Becke
Basis function cutoff            BFCut       ... 1.0000e-10
Integration weight cutoff        WCut        ... 1.0000e-14
Angular grids for H and He will be reduced by one unit
Partially contracted basis set               ... off
Rotationally invariant grid construction     ... off

Total number of grid points                  ...   237222
Total number of batches                      ...     3725
Average number of points per batch           ...       63
Average number of grid points per atom       ...     5931
Time for grid setup =    1.800 sec

--------------------
COSX GRID GENERATION
--------------------

GRIDX 1
-------
General Integration Accuracy     IntAcc      ... 3.816
Radial Grid Type                 RadialGrid  ... OptM3 with GC (2021)
Angular Grid (max. ang.)         AngularGrid ... 1 (Lebedev-50)
Angular grid pruning method      GridPruning ... 4 (adaptive)
Weight generation scheme         WeightScheme... Becke
Basis function cutoff            BFCut       ... 1.0000e-10
Integration weight cutoff        WCut        ... 1.0000e-14
Angular grids for H and He will be reduced by one unit
Partially contracted basis set               ... on
Rotationally invariant grid construction     ... off

Total number of grid points                  ...    29197
Total number of batches                      ...      482
Average number of points per batch           ...       60
Average number of grid points per atom       ...      730
UseSFitting                                  ... on

GRIDX 2
-------
General Integration Accuracy     IntAcc      ... 4.020
Radial Grid Type                 RadialGrid  ... OptM3 with GC (2021)
Angular Grid (max. ang.)         AngularGrid ... 2 (Lebedev-110)
Angular grid pruning method      GridPruning ... 4 (adaptive)
Weight generation scheme         WeightScheme... Becke
Basis function cutoff            BFCut       ... 1.0000e-10
Integration weight cutoff        WCut        ... 1.0000e-14
Angular grids for H and He will be reduced by one unit
Partially contracted basis set               ... on
Rotationally invariant grid construction     ... off

Total number of grid points                  ...    64000
Total number of batches                      ...     1017
Average number of points per batch           ...       62
Average number of grid points per atom       ...     1600
UseSFitting                                  ... on

GRIDX 3
-------
General Integration Accuracy     IntAcc      ... 4.338
Radial Grid Type                 RadialGrid  ... OptM3 with GC (2021)
Angular Grid (max. ang.)         AngularGrid ... 3 (Lebedev-194)
Angular grid pruning method      GridPruning ... 4 (adaptive)
Weight generation scheme         WeightScheme... Becke
Basis function cutoff            BFCut       ... 1.0000e-10
Integration weight cutoff        WCut        ... 1.0000e-14
Angular grids for H and He will be reduced by one unit
Partially contracted basis set               ... on
Rotationally invariant grid construction     ... off

Total number of grid points                  ...   147188
Total number of batches                      ...     2319
Average number of points per batch           ...       63
Average number of grid points per atom       ...     3680
UseSFitting                                  ... on

Time for X-Grid setup             =    1.905 sec

--------------
SCF ITERATIONS
--------------
ITER       Energy         Delta-E        Max-DP      RMS-DP      [F,P]     Damp
               ***  Starting incremental Fock matrix formation  ***
  0  -6336.4700417550   0.000000000000 2.79680003  0.00877224  0.2357719 0.7000
  1  -6336.1472232772   0.322818477723 0.83302365  0.00270512  0.1569763 0.7000
                               ***Turning on DIIS***
  2  -6335.8956368468   0.251586430454 0.41382769  0.00178538  0.1888342 0.7000
  3  -6336.5350990434  -0.639462196599 1.36748959  0.00443199  0.0910781 0.0000
  4  -6335.8984270533   0.636671990131 0.14671026  0.00051635  0.1989318 0.7000
  5  -6336.1282103698  -0.229783316548 0.20172489  0.00071711  0.1817275 0.7000
  6  -6336.3836081613  -0.255397791533 0.18481386  0.00075497  0.1580561 0.7000
  7  -6336.5956595599  -0.212051398559 0.13813848  0.00067429  0.1379748 0.7000
  8  -6336.7679107293  -0.172251169431 0.45508195  0.00170097  0.1240621 0.7000
  9  -6337.2370423389  -0.469131609605 1.23919049  0.00448215  0.0273332 0.0000
 10  -6337.0410868050   0.195955533921 0.02595349  0.00013199  0.1474557 0.7000
 11  -6337.0893553327  -0.048268527691 0.02961946  0.00016236  0.1334699 0.7000
 12  -6337.1347527617  -0.045397428998 0.02570772  0.00015226  0.1187956 0.7000
 13  -6337.1709537387  -0.036200976944 0.02026588  0.00012947  0.1063001 0.7000
 14  -6337.1990032324  -0.028049493777 0.88343155  0.00294455  0.0974303 0.0000
 15  -6336.5668565505   0.632146681913 0.05548654  0.00027318  0.1858413 0.7000
 16  -6336.7742710139  -0.207414463410 0.06655428  0.00032314  0.1544345 0.7000
 17  -6336.9823507679  -0.208079753966 0.06289398  0.00030253  0.1212589 0.7000
 18  -6337.1488183707  -0.166467602777 0.28917094  0.00098012  0.0954698 0.0000
 19  -6337.4598538492  -0.311035478483 0.21092212  0.00082079  0.0283636 0.0000
               *** Restarting incremental Fock matrix formation ***
                                   *** Resetting DIIS ***
 20  -6337.4852597736  -0.025405924433 0.04200622  0.00039669  0.0436130 0.0000
 21  -6337.4828438796   0.002415894020 0.04408479  0.00026831  0.0546678 0.0000
 22  -6337.5088208152  -0.025976935637 0.02437627  0.00017613  0.0165888 0.0000
 23  -6337.5143549178  -0.005534102608 0.01929535  0.00012439  0.0051725 0.0000
 24  -6337.5159992670  -0.001644349237 0.01052713  0.00007743  0.0062153 0.0000
 25  -6337.5172644052  -0.001265138171 0.00687968  0.00005831  0.0016891 0.0000
 26  -6337.5178719759  -0.000607570643 0.00821078  0.00004568  0.0013174 0.0000
 27  -6337.5182619350  -0.000389959107 0.01025354  0.00012472  0.0008356 0.0000
               *** Restarting incremental Fock matrix formation ***
                                   *** Resetting DIIS ***
 28  -6337.5188909137  -0.000628978709 0.00481321  0.00005244  0.0005240 0.0000
 29  -6337.5188879091   0.000003004567 0.00152331  0.00000904  0.0020092 0.0000
 30  -6337.5189547016  -0.000066792452 0.00244587  0.00001534  0.0004790 0.0000
 31  -6337.5189699420  -0.000015240412 0.00101167  0.00001007  0.0004788 0.0000
 32  -6337.5189812387  -0.000011296725 0.00051225  0.00000727  0.0004206 0.0000
 33  -6337.5189854183  -0.000004179592 0.00038378  0.00000440  0.0001302 0.0000
 34  -6337.5189864882  -0.000001069870 0.00019464  0.00000205  0.0000627 0.0000
 35  -6337.5189868781  -0.000000389928 0.00012345  0.00000088  0.0000325 0.0000
 36  -6337.5189869668  -0.000000088748 0.00008890  0.00000056  0.0000208 0.0000
 37  -6337.5189868996   0.000000067286 0.00004330  0.00000032  0.0000233 0.0000
 38  -6337.5189869688  -0.000000069281 0.00005227  0.00000033  0.0000109 0.0000
 39  -6337.5189868326   0.000000136277 0.00001947  0.00000014  0.0000324 0.0000
                 **** Energy Check signals convergence ****

               *****************************************************
               *                     SUCCESS                       *
               *           SCF CONVERGED AFTER  40 CYCLES          *
               *****************************************************

Old exchange energy                            =    -85.958317539 Eh
New exchange energy                            =    -85.958308427 Eh
Exchange energy change after final integration =      0.000009112 Eh
Total energy after final integration           =  -6337.518977770 Eh
Final COS-X integration done in                =    21.486 sec

----------------
TOTAL SCF ENERGY
----------------

Total Energy       :        -6337.51897777 Eh         -172452.65871 eV

Components:
Nuclear Repulsion  :         5068.46143824 Eh          137919.84744 eV
Electronic Energy  :       -11405.98041601 Eh         -310372.50615 eV
One Electron Energy:       -18906.63020450 Eh         -514475.56330 eV
Two Electron Energy:         7500.64978849 Eh          204103.05714 eV
Max COSX asymmetry :            0.00000107 Eh               0.00003 eV

Virial components:
Potential Energy   :       -12660.11024196 Eh         -344499.11368 eV
Kinetic Energy     :         6322.59126419 Eh          172046.45497 eV
Virial Ratio       :            2.00236101


DFT components:
N(Alpha)           :      160.999992004194 electrons
N(Beta)            :      159.999992939293 electrons
N(Total)           :      320.999984943487 electrons
E(X)               :     -341.610849825017 Eh       
E(C)               :      -14.729192322965 Eh       
E(XC)              :     -356.340042147982 Eh       
DFET-embed. en.    :        0.000000000000 Eh       

---------------
SCF CONVERGENCE
---------------

  Last Energy change         ...   -4.9825e-08  Tolerance :   1.0000e-06
  Last MAX-Density change    ...    0.0000e+00  Tolerance :   1.0000e-05
  Last RMS-Density change    ...    0.0000e+00  Tolerance :   1.0000e-06
  Last DIIS Error            ...    5.7956e-06  Tolerance :   1.0000e-06

             **** THE GBW FILE WAS UPDATED (input_65.gbw) ****
             **** DENSITY input_65.scfp WAS UPDATED ****
             **** ENERGY FILE WAS UPDATED (input_65.en.tmp) ****
----------------------
UHF SPIN CONTAMINATION
----------------------

Warning: in a DFT calculation there is little theoretical justification to 
         calculate <S**2> as in Hartree-Fock theory. We will do it anyways
         but you should keep in mind that the values have only limited relevance

Expectation value of <S**2>     :     0.767437
Ideal value S*(S+1) for S=0.5   :     0.750000
Deviation                       :     0.017437

             **** THE GBW FILE WAS UPDATED (input_65.gbw) ****
             **** DENSITY input_65.scfp WAS UPDATED ****
----------------
ORBITAL ENERGIES
----------------
                 SPIN UP ORBITALS
  NO   OCC          E(Eh)            E(eV) 
   0   1.0000    -196.683410     -5352.0277 
   1   1.0000     -88.741357     -2414.7751 
   2   1.0000     -88.741180     -2414.7703 
   3   1.0000     -88.738279     -2414.6913 
   4   1.0000     -88.738131     -2414.6873 
   5   1.0000     -88.720897     -2414.2183 
   6   1.0000     -88.720719     -2414.2135 
   7   1.0000     -88.702794     -2413.7257 
   8   1.0000     -88.701678     -2413.6954 
   9   1.0000     -88.650433     -2412.3009 
  10   1.0000     -88.649968     -2412.2883 
  11   1.0000     -88.640416     -2412.0284 
  12   1.0000     -88.640013     -2412.0174 
  13   1.0000     -22.058268      -600.2360 
  14   1.0000     -18.897838      -514.2363 
  15   1.0000     -18.564514      -505.1661 
  16   1.0000     -18.559702      -505.0352 
  17   1.0000     -18.559603      -505.0325 
  18   1.0000     -10.075640      -274.1721 
  19   1.0000     -10.065687      -273.9013 
  20   1.0000     -10.065644      -273.9001 
  21   1.0000     -10.063843      -273.8511 
  22   1.0000     -10.054911      -273.6080 
  23   1.0000     -10.054892      -273.6075 
  24   1.0000     -10.052130      -273.5324 
  25   1.0000     -10.051356      -273.5113 
  26   1.0000     -10.044799      -273.3329 
  27   1.0000     -10.034151      -273.0431 
  28   1.0000     -10.020739      -272.6782 
  29   1.0000     -10.020018      -272.6586 
  30   1.0000     -10.005587      -272.2659 
  31   1.0000     -10.004486      -272.2359 
  32   1.0000      -7.800680      -212.2673 
  33   1.0000      -7.800307      -212.2571 
  34   1.0000      -7.791140      -212.0077 
  35   1.0000      -7.790986      -212.0035 
  36   1.0000      -7.774969      -211.5677 
  37   1.0000      -7.774822      -211.5636 
  38   1.0000      -7.754428      -211.0087 
  39   1.0000      -7.753403      -210.9808 
  40   1.0000      -7.703679      -209.6278 
  41   1.0000      -7.702705      -209.6013 
  42   1.0000      -7.701047      -209.5562 
  43   1.0000      -7.700681      -209.5462 
  44   1.0000      -5.765083      -156.8759 
  45   1.0000      -5.764725      -156.8662 
  46   1.0000      -5.760143      -156.7415 
  47   1.0000      -5.759785      -156.7317 
  48   1.0000      -5.756820      -156.6510 
  49   1.0000      -5.756472      -156.6416 
  50   1.0000      -5.756148      -156.6328 
  51   1.0000      -5.755988      -156.6284 
  52   1.0000      -5.752792      -156.5414 
  53   1.0000      -5.752646      -156.5374 
  54   1.0000      -5.745974      -156.3559 
  55   1.0000      -5.745819      -156.3517 
  56   1.0000      -5.739950      -156.1920 
  57   1.0000      -5.739810      -156.1882 
  58   1.0000      -5.736417      -156.0958 
  59   1.0000      -5.736266      -156.0917 
  60   1.0000      -5.729774      -155.9151 
  61   1.0000      -5.729612      -155.9107 
  62   1.0000      -5.719272      -155.6293 
  63   1.0000      -5.718227      -155.6009 
  64   1.0000      -5.715368      -155.5231 
  65   1.0000      -5.714302      -155.4940 
  66   1.0000      -5.710249      -155.3838 
  67   1.0000      -5.709272      -155.3572 
  68   1.0000      -5.667853      -154.2301 
  69   1.0000      -5.667470      -154.2197 
  70   1.0000      -5.667057      -154.2085 
  71   1.0000      -5.666119      -154.1829 
  72   1.0000      -5.662312      -154.0794 
  73   1.0000      -5.661340      -154.0529 
  74   1.0000      -5.661061      -154.0453 
  75   1.0000      -5.660154      -154.0206 
  76   1.0000      -5.659601      -154.0056 
  77   1.0000      -5.659233      -153.9955 
  78   1.0000      -5.657674      -153.9531 
  79   1.0000      -5.657280      -153.9424 
  80   1.0000      -2.451874       -66.7189 
  81   1.0000      -1.492909       -40.6241 
  82   1.0000      -1.481534       -40.3146 
  83   1.0000      -1.481112       -40.3031 
  84   1.0000      -0.753062       -20.4919 
  85   1.0000      -0.701936       -19.1006 
  86   1.0000      -0.694880       -18.9087 
  87   1.0000      -0.670020       -18.2322 
  88   1.0000      -0.656693       -17.8695 
  89   1.0000      -0.640649       -17.4329 
  90   1.0000      -0.639015       -17.3885 
  91   1.0000      -0.636668       -17.3246 
  92   1.0000      -0.618041       -16.8178 
  93   1.0000      -0.608439       -16.5565 
  94   1.0000      -0.582461       -15.8496 
  95   1.0000      -0.580110       -15.7856 
  96   1.0000      -0.559269       -15.2185 
  97   1.0000      -0.506764       -13.7898 
  98   1.0000      -0.496809       -13.5189 
  99   1.0000      -0.487281       -13.2596 
 100   1.0000      -0.483161       -13.1475 
 101   1.0000      -0.476744       -12.9729 
 102   1.0000      -0.450597       -12.2614 
 103   1.0000      -0.448117       -12.1939 
 104   1.0000      -0.438671       -11.9369 
 105   1.0000      -0.418203       -11.3799 
 106   1.0000      -0.414151       -11.2696 
 107   1.0000      -0.369745       -10.0613 
 108   1.0000      -0.354452        -9.6451 
 109   1.0000      -0.341623        -9.2960 
 110   1.0000      -0.339677        -9.2431 
 111   1.0000      -0.319070        -8.6823 
 112   1.0000      -0.312632        -8.5071 
 113   1.0000      -0.298141        -8.1128 
 114   1.0000      -0.285984        -7.7820 
 115   1.0000      -0.284100        -7.7308 
 116   1.0000      -0.275122        -7.4865 
 117   1.0000      -0.264354        -7.1934 
 118   1.0000      -0.260980        -7.1016 
 119   1.0000      -0.249075        -6.7777 
 120   1.0000      -0.246920        -6.7190 
 121   1.0000      -0.242920        -6.6102 
 122   1.0000      -0.232655        -6.3309 
 123   1.0000      -0.231035        -6.2868 
 124   1.0000      -0.230543        -6.2734 
 125   1.0000      -0.225858        -6.1459 
 126   1.0000      -0.222924        -6.0661 
 127   1.0000      -0.211194        -5.7469 
 128   1.0000      -0.204688        -5.5698 
 129   1.0000      -0.201339        -5.4787 
 130   1.0000      -0.198297        -5.3959 
 131   1.0000      -0.187149        -5.0926 
 132   1.0000      -0.184573        -5.0225 
 133   1.0000      -0.182986        -4.9793 
 134   1.0000      -0.158403        -4.3104 
 135   1.0000      -0.154232        -4.1969 
 136   1.0000      -0.146176        -3.9777 
 137   1.0000      -0.143487        -3.9045 
 138   1.0000      -0.135001        -3.6736 
 139   1.0000      -0.133915        -3.6440 
 140   1.0000      -0.130548        -3.5524 
 141   1.0000      -0.125802        -3.4233 
 142   1.0000      -0.120289        -3.2732 
 143   1.0000      -0.115420        -3.1407 
 144   1.0000      -0.098280        -2.6743 
 145   1.0000      -0.095884        -2.6091 
 146   1.0000      -0.089705        -2.4410 
 147   1.0000      -0.087380        -2.3777 
 148   1.0000      -0.075900        -2.0653 
 149   1.0000      -0.072410        -1.9704 
 150   1.0000      -0.065157        -1.7730 
 151   1.0000      -0.048497        -1.3197 
 152   1.0000      -0.045245        -1.2312 
 153   1.0000      -0.040901        -1.1130 
 154   1.0000      -0.037554        -1.0219 
 155   1.0000      -0.033549        -0.9129 
 156   1.0000      -0.026798        -0.7292 
 157   1.0000      -0.022477        -0.6116 
 158   1.0000      -0.011901        -0.3238 
 159   1.0000       0.017718         0.4821 
 160   1.0000       0.049711         1.3527 
 161   0.0000       0.132251         3.5987 
 162   0.0000       0.141585         3.8527 
 163   0.0000       0.150524         4.0960 
 164   0.0000       0.160236         4.3602 
 165   0.0000       0.161423         4.3925 
 166   0.0000       0.162707         4.4275 
 167   0.0000       0.167898         4.5687 
 168   0.0000       0.169458         4.6112 
 169   0.0000       0.172533         4.6949 
 170   0.0000       0.177661         4.8344 
 171   0.0000       0.180038         4.8991 
 172   0.0000       0.182859         4.9758 
 173   0.0000       0.190224         5.1763 
 174   0.0000       0.192698         5.2436 
 175   0.0000       0.195842         5.3291 
 176   0.0000       0.197743         5.3809 
 177   0.0000       0.201429         5.4812 
 178   0.0000       0.201573         5.4851 
 179   0.0000       0.208571         5.6755 
 180   0.0000       0.209243         5.6938 
 181   0.0000       0.213027         5.7968 
 182   0.0000       0.216241         5.8842 
 183   0.0000       0.223121         6.0714 
 184   0.0000       0.226455         6.1622 
 185   0.0000       0.227714         6.1964 
 186   0.0000       0.230521         6.2728 
 187   0.0000       0.236567         6.4373 
 188   0.0000       0.237163         6.4535 
 189   0.0000       0.237638         6.4665 
 190   0.0000       0.240141         6.5346 
 191   0.0000       0.243288         6.6202 
 192   0.0000       0.251012         6.8304 
 193   0.0000       0.252561         6.8725 
 194   0.0000       0.254885         6.9358 
 195   0.0000       0.265595         7.2272 
 196   0.0000       0.270431         7.3588 
 197   0.0000       0.270915         7.3720 
 198   0.0000       0.271517         7.3883 
 199   0.0000       0.274129         7.4594 
 200   0.0000       0.286340         7.7917 
 201   0.0000       0.288175         7.8416 
 202   0.0000       0.309892         8.4326 
 203   0.0000       0.315923         8.5967 
 204   0.0000       0.321864         8.7584 
 205   0.0000       0.331558         9.0221 
 206   0.0000       0.337388         9.1808 
 207   0.0000       0.338393         9.2082 
 208   0.0000       0.339038         9.2257 
 209   0.0000       0.344553         9.3758 
 210   0.0000       0.345996         9.4150 
 211   0.0000       0.348351         9.4791 
 212   0.0000       0.355366         9.6700 
 213   0.0000       0.360419         9.8075 
 214   0.0000       0.364572         9.9205 
 215   0.0000       0.373618        10.1667 
 216   0.0000       0.377022        10.2593 
 217   0.0000       0.382038        10.3958 
 218   0.0000       0.386847        10.5266 
 219   0.0000       0.388728        10.5778 
 220   0.0000       0.390357        10.6221 
 221   0.0000       0.392607        10.6834 
 222   0.0000       0.393832        10.7167 
 223   0.0000       0.396478        10.7887 
 224   0.0000       0.400508        10.8984 
 225   0.0000       0.402908        10.9637 
 226   0.0000       0.410356        11.1664 
 227   0.0000       0.412097        11.2137 
 228   0.0000       0.412894        11.2354 
 229   0.0000       0.419650        11.4193 
 230   0.0000       0.421346        11.4654 
 231   0.0000       0.425526        11.5791 
 232   0.0000       0.433044        11.7837 
 233   0.0000       0.433881        11.8065 
 234   0.0000       0.439486        11.9590 
 235   0.0000       0.444609        12.0984 
 236   0.0000       0.449372        12.2280 
 237   0.0000       0.452470        12.3123 
 238   0.0000       0.456908        12.4331 
 239   0.0000       0.460027        12.5180 
 240   0.0000       0.463385        12.6093 
 241   0.0000       0.471537        12.8312 
 242   0.0000       0.473386        12.8815 
 243   0.0000       0.477638        12.9972 
 244   0.0000       0.477813        13.0020 
 245   0.0000       0.484703        13.1894 
 246   0.0000       0.487901        13.2765 
 247   0.0000       0.489075        13.3084 
 248   0.0000       0.491364        13.3707 
 249   0.0000       0.494363        13.4523 
 250   0.0000       0.500085        13.6080 
 251   0.0000       0.502115        13.6632 
 252   0.0000       0.503606        13.7038 
 253   0.0000       0.506257        13.7760 
 254   0.0000       0.514150        13.9907 
 255   0.0000       0.516470        14.0539 
 256   0.0000       0.519150        14.1268 
 257   0.0000       0.520897        14.1743 
 258   0.0000       0.522675        14.2227 
 259   0.0000       0.523231        14.2378 
 260   0.0000       0.523663        14.2496 
 261   0.0000       0.527636        14.3577 
 262   0.0000       0.531711        14.4686 
 263   0.0000       0.532721        14.4961 
 264   0.0000       0.534255        14.5378 
 265   0.0000       0.540843        14.7171 
 266   0.0000       0.543838        14.7986 
 267   0.0000       0.546369        14.8675 
 268   0.0000       0.549432        14.9508 
 269   0.0000       0.550789        14.9877 
 270   0.0000       0.556973        15.1560 
 271   0.0000       0.560042        15.2395 
 272   0.0000       0.563969        15.3464 
 273   0.0000       0.569124        15.4867 
 274   0.0000       0.571500        15.5513 
 275   0.0000       0.571757        15.5583 
 276   0.0000       0.576854        15.6970 
 277   0.0000       0.579332        15.7644 
 278   0.0000       0.580945        15.8083 
 279   0.0000       0.586438        15.9578 
 280   0.0000       0.590248        16.0615 
 281   0.0000       0.590682        16.0733 
 282   0.0000       0.596269        16.2253 
 283   0.0000       0.596540        16.2327 
 284   0.0000       0.605922        16.4880 
 285   0.0000       0.608473        16.5574 
 286   0.0000       0.610809        16.6209 
 287   0.0000       0.613234        16.6870 
 288   0.0000       0.613999        16.7078 
 289   0.0000       0.621468        16.9110 
 290   0.0000       0.622432        16.9372 
 291   0.0000       0.626904        17.0589 
 292   0.0000       0.632836        17.2203 
 293   0.0000       0.635503        17.2929 
 294   0.0000       0.637790        17.3551 
 295   0.0000       0.640162        17.4197 
 296   0.0000       0.641293        17.4505 
 297   0.0000       0.652255        17.7488 
 298   0.0000       0.653241        17.7756 
 299   0.0000       0.668274        18.1847 
 300   0.0000       0.672772        18.3071 
 301   0.0000       0.682648        18.5758 
 302   0.0000       0.691041        18.8042 
 303   0.0000       0.698007        18.9937 
 304   0.0000       0.715173        19.4609 
 305   0.0000       0.718317        19.5464 
 306   0.0000       0.727233        19.7890 
 307   0.0000       0.727969        19.8090 
 308   0.0000       0.733170        19.9506 
 309   0.0000       0.746164        20.3042 
 310   0.0000       0.753375        20.5004 
 311   0.0000       0.757054        20.6005 
 312   0.0000       0.762045        20.7363 
 313   0.0000       0.763729        20.7821 
 314   0.0000       0.773178        21.0392 
 315   0.0000       0.780663        21.2429 
 316   0.0000       0.781635        21.2694 
 317   0.0000       0.797493        21.7009 
 318   0.0000       0.804655        21.8958 
 319   0.0000       0.807966        21.9859 
 320   0.0000       0.818794        22.2805 
 321   0.0000       0.821877        22.3644 
 322   0.0000       0.837479        22.7890 
 323   0.0000       0.839346        22.8398 
 324   0.0000       0.841419        22.8962 
 325   0.0000       0.847099        23.0507 
 326   0.0000       0.857457        23.3326 
 327   0.0000       0.863099        23.4861 
 328   0.0000       0.866350        23.5746 
 329   0.0000       0.871311        23.7096 
 330   0.0000       0.876332        23.8462 
 331   0.0000       0.877126        23.8678 
 332   0.0000       0.883867        24.0512 
 333   0.0000       0.885534        24.0966 
 334   0.0000       0.891386        24.2559 
 335   0.0000       0.898756        24.4564 
 336   0.0000       0.906928        24.6788 
 337   0.0000       0.908568        24.7234 
 338   0.0000       0.908980        24.7346 
 339   0.0000       0.914334        24.8803 
 340   0.0000       0.928856        25.2754 
 341   0.0000       0.932491        25.3744 
 342   0.0000       0.942005        25.6333 
 343   0.0000       0.944105        25.6904 
 344   0.0000       0.947227        25.7753 
 345   0.0000       0.952310        25.9137 
 346   0.0000       0.953752        25.9529 
 347   0.0000       0.956511        26.0280 
 348   0.0000       0.967031        26.3142 
 349   0.0000       0.967685        26.3320 
 350   0.0000       0.973536        26.4913 
 351   0.0000       0.982170        26.7262 
 352   0.0000       0.984245        26.7827 
 353   0.0000       0.993107        27.0238 
 354   0.0000       1.001567        27.2540 
 355   0.0000       1.007391        27.4125 
 356   0.0000       1.015445        27.6317 
 357   0.0000       1.021424        27.7944 
 358   0.0000       1.024082        27.8667 
 359   0.0000       1.028935        27.9987 
 360   0.0000       1.031751        28.0754 
 361   0.0000       1.036265        28.1982 
 362   0.0000       1.044765        28.4295 
 363   0.0000       1.050387        28.5825 
 364   0.0000       1.056367        28.7452 
 365   0.0000       1.065129        28.9836 
 366   0.0000       1.073366        29.2078 
 367   0.0000       1.074559        29.2402 
 368   0.0000       1.079822        29.3835 
 369   0.0000       1.082062        29.4444 
 370   0.0000       1.085111        29.5274 
 371   0.0000       1.095338        29.8057 
 372   0.0000       1.100200        29.9380 
 373   0.0000       1.103676        30.0325 
 374   0.0000       1.107749        30.1434 
 375   0.0000       1.119566        30.4649 
 376   0.0000       1.122275        30.5387 
 377   0.0000       1.135092        30.8874 
 378   0.0000       1.136593        30.9283 
 379   0.0000       1.144886        31.1539 
 380   0.0000       1.161206        31.5980 
 381   0.0000       1.166337        31.7376 
[...]
Total number of batches                      ...      302
Average number of points per batch           ...       58
Average number of grid points per atom       ...      444

Memory available               ... 822.0 MB
Memory needed per perturbation ...  41.3 MB
Perturbations treated per batch... 3
Number of batches              ... 1
     CP-SCF ITERATION   0:   4.2700e-02 (   4.7 sec   0/  3 done)
     CP-SCF ITERATION   1:   1.2397e-03 (   4.9 sec   0/  3 done)
     CP-SCF ITERATION   2:   1.7316e-04 (   4.9 sec   3/  3 done)
                    *** THE CP-SCF HAS CONVERGED ***

Forming final perturbed densities           ... done
Transforming perturbed density to AO basis  ... done

 Raw HFC matrix (all values in MHz): 
 -----------------------------------
                -0.0110              -0.0762               0.0626
                -0.0767               0.0558              -0.0969
                 0.0629              -0.0971               0.0181

 A(FC)           0.0207               0.0207               0.0207
 A(SD)          -0.0828              -0.0831               0.1658
 A(ORB+DIA)      0.0013               0.0005              -0.0010    A(PC) =   0.0002
 A(ORB)          0.0013               0.0005              -0.0010    A(PC) =   0.0003
 A(DIA)         -0.0000              -0.0000               0.0000    A(PC) =  -0.0000
             ----------           ----------           ----------
 A(Tot)         -0.0607              -0.0619               0.1856    A(iso)=    0.0210
 Orientation: 
  X           0.8854607            0.1204665            0.4488286
  Y           0.2576544            0.6765149           -0.6898853
  Z          -0.3867473            0.7265091            0.5679887

Notes:  (1) The A matrix conforms to the "SAI" spin Hamiltonian convention.
        (2) Tensor is right-handed.

 Raw EFG matrix (all values in a.u.**-3):
 -----------------------------------
            -0.1418      -0.0616      -0.0009
            -0.0616       0.2829      -0.0046
            -0.0009      -0.0046      -0.1411

 V(El)       0.5511       0.8162      -1.3672
 V(Nuc)     -0.6920      -0.9670       1.6590
         ----------   ----------   ----------
 V(Tot)     -0.1409      -0.1508       0.2917 
 Orientation: 
  X      -0.1570745   -0.9775338    0.1405535
  Y      -0.0121638   -0.1403944   -0.9900209
  Z       0.9875118   -0.1572167    0.0101619

Note: Tensor is right-handed


 Quadrupole tensor eigenvalues (in MHz;Q= 0.0029 I=  1.0)
  e**2qQ            =     0.195879 MHz 
  e**2qQ/(4I*(2I-1))=     0.048970 MHz 
  eta               =     0.034071
  NOTE: the diagonal representation of the SH term I*Q*I = e**2qQ/(4I(2I-1))*[-(1-eta),-(1+eta),2]

 RHO(0)=      0.443421951 a.u.**-3

 -----------------------------------------------------------
 Nucleus  39H : A:ISTP=    1 I=  0.5 P=533.5514 MHz/au**3
                Q:ISTP=    2 I=  1.0 Q=  0.0029 barn     
 -----------------------------------------------------------
 Solving for nuclear perturbation:
Forming RHS of the CP-SCF equations         ... 
Calc. nucleus orbit integrals (SHARK)       ... done

------------------------------------------------------------------------------
                           ORCA CP-SCF CALCULATION
------------------------------------------------------------------------------

Input orbitals are from        ... input_65.gbw
Input Perturbation             ... input_65.pin.tmp
Wavefunction output            ... input_65.pout.tmp
Perturbation mode              ... Imaginary perturbation
Solver                         ... POPLE
Max. number of iterations      ... 64
Convergence tolerance          ... 1.000e-03
Integral handling              ... Direct
DFT GridXC                     ... 1
COSX GridX                     ... 1
COSX IntAccX                   ... 3.067
COSX Algorithm                 ... Auto
Number of perturbations        ... 3
Number of operators            ... 2
Orbital ranges used for CP-SCF:
 Operator 0:  Orbitals   0...160  to 161...680
 Operator 1:  Orbitals   0...159  to 160...680
Variables per perturbation     ... 167080
DFT calculation                         ... on
XC functional terms                     ... off
Hybrid DFT                              ... on
   Exchange mixing (SCF)                ...  0.200
   Exchange mixing (CP-SCF)             ...  0.200
   GGA exch. scaling(SCF)               ...  0.720
   GGA exch. scaling (CP-SCF)           ...  0.720
   GGA corr. scaling (SCF)              ...  0.810
   GGA corr. scaling (CP-SCF)           ...  0.810

CP-SCF GRID
-----------

General Integration Accuracy     IntAcc      ... 3.467
Radial Grid Type                 RadialGrid  ... OptM3 with GC (2021)
Angular Grid (max. ang.)         AngularGrid ... 1 (Lebedev-50)
Angular grid pruning method      GridPruning ... 4 (adaptive)
Weight generation scheme         WeightScheme... Becke
Basis function cutoff            BFCut       ... 1.0000e-10
Integration weight cutoff        WCut        ... 1.0000e-14
Angular grids for H and He will be reduced by one unit
Partially contracted basis set               ... off
Rotationally invariant grid construction     ... off

Total number of grid points                  ...    39331
Total number of batches                      ...      634
Average number of points per batch           ...       62
Average number of grid points per atom       ...      983

CP-SCF GRIDX
------------

General Integration Accuracy     IntAcc      ... 3.067
Radial Grid Type                 RadialGrid  ... OptM3 with GC (2021)
Angular Grid (max. ang.)         AngularGrid ... 1 (Lebedev-50)
Angular grid pruning method      GridPruning ... 4 (adaptive)
Weight generation scheme         WeightScheme... Becke
Basis function cutoff            BFCut       ... 1.0000e-10
Integration weight cutoff        WCut        ... 1.0000e-14
Angular grids for H and He will be reduced by one unit
Partially contracted basis set               ... on
Rotationally invariant grid construction     ... off

Total number of grid points                  ...    17773
Total number of batches                      ...      302
Average number of points per batch           ...       58
Average number of grid points per atom       ...      444

Memory available               ... 819.9 MB
Memory needed per perturbation ...  41.3 MB
Perturbations treated per batch... 3
Number of batches              ... 1
     CP-SCF ITERATION   0:   4.4834e-02 (   4.8 sec   0/  3 done)
     CP-SCF ITERATION   1:   1.4590e-03 (   4.9 sec   1/  3 done)
     CP-SCF ITERATION   2:   1.5992e-04 (   4.0 sec   3/  3 done)
                    *** THE CP-SCF HAS CONVERGED ***

Forming final perturbed densities           ... done
Transforming perturbed density to AO basis  ... done

 Raw HFC matrix (all values in MHz): 
 -----------------------------------
                -0.0767              -0.0964               0.0948
                -0.0967               0.0381              -0.1663
                 0.0953              -0.1664               0.0337

 A(FC)          -0.0020              -0.0020              -0.0020
 A(SD)          -0.1294              -0.1314               0.2608
 A(ORB+DIA)      0.0010               0.0017              -0.0016    A(PC) =   0.0004
 A(ORB)          0.0010               0.0018              -0.0016    A(PC) =   0.0004
 A(DIA)         -0.0000              -0.0000               0.0000    A(PC) =  -0.0000
             ----------           ----------           ----------
 A(Tot)         -0.1304              -0.1317               0.2572    A(iso)=   -0.0016
 Orientation: 
  X          -0.1600027            0.9128558           -0.3756241
  Y           0.6456318            0.3846253            0.6597143
  Z           0.7466985           -0.1369588           -0.6509098

Notes:  (1) The A matrix conforms to the "SAI" spin Hamiltonian convention.
        (2) Tensor is right-handed.

 Raw EFG matrix (all values in a.u.**-3):
 -----------------------------------
             0.2729      -0.0758       0.0057
            -0.0758      -0.1305       0.0002
             0.0057       0.0002      -0.1424

 V(El)       0.6673       0.4112      -1.0785
 V(Nuc)     -0.8092      -0.5561       1.3653
         ----------   ----------   ----------
 V(Tot)     -0.1419      -0.1449       0.2868 
 Orientation: 
  X       0.0706704    0.1647301   -0.9838037
  Y       0.4536568    0.8730607    0.1787750
  Z       0.8883700   -0.4589433   -0.0130314

Note: Tensor is right-handed


 Quadrupole tensor eigenvalues (in MHz;Q= 0.0029 I=  1.0)
  e**2qQ            =     0.192559 MHz 
  e**2qQ/(4I*(2I-1))=     0.048140 MHz 
  eta               =     0.010645
  NOTE: the diagonal representation of the SH term I*Q*I = e**2qQ/(4I(2I-1))*[-(1-eta),-(1+eta),2]

 RHO(0)=      0.442151736 a.u.**-3

 -----------------------------------------------------------
 Nucleus   0V : A:ISTP=   51 I=  3.5 P=140.5173 MHz/au**3
                Q:ISTP=   51 I=  3.5 Q= -0.0430 barn     
 -----------------------------------------------------------
 Solving for nuclear perturbation:
Forming RHS of the CP-SCF equations         ... 
Calc. nucleus orbit integrals (SHARK)       ... done

------------------------------------------------------------------------------
                           ORCA CP-SCF CALCULATION
------------------------------------------------------------------------------

Input orbitals are from        ... input_65.gbw
Input Perturbation             ... input_65.pin.tmp
Wavefunction output            ... input_65.pout.tmp
Perturbation mode              ... Imaginary perturbation
Solver                         ... POPLE
Max. number of iterations      ... 64
Convergence tolerance          ... 1.000e-03
Integral handling              ... Direct
DFT GridXC                     ... 1
COSX GridX                     ... 1
COSX IntAccX                   ... 3.067
COSX Algorithm                 ... Auto
Number of perturbations        ... 3
Number of operators            ... 2
Orbital ranges used for CP-SCF:
 Operator 0:  Orbitals   0...160  to 161...680
 Operator 1:  Orbitals   0...159  to 160...680
Variables per perturbation     ... 167080
DFT calculation                         ... on
XC functional terms                     ... off
Hybrid DFT                              ... on
   Exchange mixing (SCF)                ...  0.200
   Exchange mixing (CP-SCF)             ...  0.200
   GGA exch. scaling(SCF)               ...  0.720
   GGA exch. scaling (CP-SCF)           ...  0.720
   GGA corr. scaling (SCF)              ...  0.810
   GGA corr. scaling (CP-SCF)           ...  0.810

CP-SCF GRID
-----------

General Integration Accuracy     IntAcc      ... 3.467
Radial Grid Type                 RadialGrid  ... OptM3 with GC (2021)
Angular Grid (max. ang.)         AngularGrid ... 1 (Lebedev-50)
Angular grid pruning method      GridPruning ... 4 (adaptive)
Weight generation scheme         WeightScheme... Becke
Basis function cutoff            BFCut       ... 1.0000e-10
Integration weight cutoff        WCut        ... 1.0000e-14
Angular grids for H and He will be reduced by one unit
Partially contracted basis set               ... off
Rotationally invariant grid construction     ... off

Total number of grid points                  ...    39331
Total number of batches                      ...      634
Average number of points per batch           ...       62
Average number of grid points per atom       ...      983

CP-SCF GRIDX
------------

General Integration Accuracy     IntAcc      ... 3.067
Radial Grid Type                 RadialGrid  ... OptM3 with GC (2021)
Angular Grid (max. ang.)         AngularGrid ... 1 (Lebedev-50)
Angular grid pruning method      GridPruning ... 4 (adaptive)
Weight generation scheme         WeightScheme... Becke
Basis function cutoff            BFCut       ... 1.0000e-10
Integration weight cutoff        WCut        ... 1.0000e-14
Angular grids for H and He will be reduced by one unit
Partially contracted basis set               ... on
Rotationally invariant grid construction     ... off

Total number of grid points                  ...    17773
Total number of batches                      ...      302
Average number of points per batch           ...       58
Average number of grid points per atom       ...      444

Memory available               ... 817.8 MB
Memory needed per perturbation ...  41.3 MB
Perturbations treated per batch... 3
Number of batches              ... 1
     CP-SCF ITERATION   0:   1.2008e+01 (   5.2 sec   0/  3 done)
     CP-SCF ITERATION   1:   2.1919e+00 (   5.0 sec   0/  3 done)
     CP-SCF ITERATION   2:   3.8837e-01 (   5.0 sec   0/  3 done)
     CP-SCF ITERATION   3:   5.9624e-02 (   5.0 sec   0/  3 done)
     CP-SCF ITERATION   4:   1.6457e-02 (   5.0 sec   0/  3 done)
     CP-SCF ITERATION   5:   2.9905e-03 (   5.0 sec   0/  3 done)
     CP-SCF ITERATION   6:   4.2534e-04 (   5.0 sec   3/  3 done)
                    *** THE CP-SCF HAS CONVERGED ***

Forming final perturbed densities           ... done
Transforming perturbed density to AO basis  ... done

 Raw HFC matrix (all values in MHz): 
 -----------------------------------
              -274.3217             -31.3377             138.9267
               -30.5257             -88.9593              19.3830
               137.4254              19.7207            -181.4865

 A(FC)        -169.4407            -169.4407            -169.4407
 A(SD)          95.7182              91.2736            -186.9918
 A(ORB+DIA)     -7.0992              -7.4985             -21.8476    A(PC) = -12.1484
 A(ORB)         -7.0997              -7.4981             -21.8474    A(PC) = -12.1484
 A(DIA)          0.0005              -0.0004              -0.0002    A(PC) =  -0.0000
             ----------           ----------           ----------
 A(Tot)        -80.8217             -85.6656            -378.2802    A(iso)= -181.5892
 Orientation: 
  X          -0.5593695            0.1950283            0.8056486
  Y           0.4831533            0.8664644            0.1257075
  Z          -0.6735493            0.4595688           -0.5789023

Notes:  (1) The A matrix conforms to the "SAI" spin Hamiltonian convention.
        (2) Tensor is right-handed.

 Raw EFG matrix (all values in a.u.**-3):
 -----------------------------------
             0.1513       0.0249      -0.0834
             0.0249      -0.0758       0.0396
            -0.0834       0.0396      -0.0755

 V(El)       0.1851      -0.4006       0.2155
 V(Nuc)     -0.2274       0.2637      -0.0363
         ----------   ----------   ----------
 V(Tot)     -0.0423      -0.1369       0.1792 
 Orientation: 
  X      -0.1482940    0.2700021   -0.9513715
  Y      -0.7992867   -0.5992268   -0.0454744
  Z      -0.5823655    0.7536750    0.3046709

Note: Tensor is right-handed


 Quadrupole tensor eigenvalues (in MHz;Q=-0.0430 I=  3.5)
  e**2qQ            =    -1.810285 MHz 
  e**2qQ/(4I*(2I-1))=    -0.021551 MHz 
  eta               =     0.527804
  NOTE: the diagonal representation of the SH term I*Q*I = e**2qQ/(4I(2I-1))*[-(1-eta),-(1+eta),2]

 RHO(0)=   8115.189386733 a.u.**-3


--------------------------------------------------------------------------------
----------------------------------------------------------------------------
                           ORCA EULER ANGLE PROGRAM
----------------------------------------------------------------------------

Only g-tensor available        -->  using g-tensor as reference tensor

Reference tensor               ...  g

g-tensor ordering              ...  |g_min> --> |gx>
                                    |g_mid> --> |gy>
                                    |g_max> --> |gz>

A- and EFG-tensor ordering     ...  the axes |Ax>, |Qx>, |Ay>, etc. are assigned
                                    such that the Euler rotation is minimal. You
                                    can find the respective eigenvalues as Ax,
                                    EFGx, Ay, etc. in the tables below.
                                    The relation of |Ax>, |Ay>,  etc. to Amin, Amid, etc.
                                    (as printed in the ORCA EPR/NMR CALCULATION Output)
                                    is obtained in the detailed printout.

Euler rotation around          ...  z - y - z
   First rotation              -->  by alpha around z
   Second rotation             -->  by beta around y'
   Third rotation              -->  by gamma around z''
   Positive / Negative angle   -->  clockwise / counterclockwise rotation

Plot EFG-tensors                    (-)
Plot HFC-tensors                    (-)
Detailed Printout                   (-)

-------------------------------------------------------------------------
          Euler rotation of hyperfine tensor to g-tensor
-------------------------------------------------------------------------

-------------------------------------------------------------------
 Atom  |   Alpha    Beta    Gamma   |   Ax       Ay       Az 
       |          [degrees]         |           [MHz]         
-------------------------------------------------------------------
 25H      -45.5     49.6     56.0      -0.13    -0.13     0.27
 26H       60.5     46.9    -74.4      -0.08     0.18    -0.08
 27H      -63.4     40.3     52.9      -0.06    -0.06     0.15
 28H      -76.1     36.5     67.7      -0.07    -0.07     0.14
 29H      -92.2     26.7     48.0      -0.08    -0.08     0.17
 30H      -74.2     33.6     41.2      -0.13    -0.13     0.27
 34H      -85.3     41.8     87.4      -0.13    -0.13     0.26
 35H       99.0     45.2    -97.3      -0.06     0.19    -0.06
 36H     -108.4     34.4    106.9      -0.09    -0.09     0.12
 37H      -92.2     32.5     89.2      -0.12    -0.12     0.08
 38H     -117.0     20.9    105.5      -0.06    -0.06     0.19
 39H     -117.2     23.1     88.9      -0.13    -0.13     0.26
  0V     -103.0     35.7    104.9    -378.28   -85.67   -80.82
-------------------------------------------------------------------


-------------------------------------------------------------------------------
    Euler rotation of Electric Field Gradient (EFG) tensor to g-tensor
-------------------------------------------------------------------------------

-------------------------------------------------------------------
 Atom  |   Alpha    Beta    Gamma  |   EFGx     EFGy     EFGz
       |          [degrees]        |         [a.u.**-3]       
-------------------------------------------------------------------
 25H        2.4     41.5    -38.2      0.29    -0.15    -0.14
 26H      176.8     37.9    170.5     -0.14     0.29    -0.15
 27H     -117.6     39.9    122.2      0.28    -0.14    -0.15
 28H     -131.4     49.6    141.6     -0.15    -0.14     0.29
 29H      101.4     20.7    -63.6     -0.14    -0.15     0.29
 30H       -9.8     38.2    -26.9      0.29    -0.14    -0.15
 34H       39.7     33.0    -65.6      0.29    -0.14    -0.14
 35H        6.6     33.6     -7.8     -0.15     0.29    -0.14
 36H      -52.6     42.3     39.3      0.29    -0.14    -0.15
 37H     -137.7     52.7    146.4      0.28    -0.14    -0.15
 38H       63.8     21.6   -102.5     -0.15    -0.14     0.29
 39H      -10.0     23.9    -11.1      0.29    -0.14    -0.14
  0V      -81.1     28.7     72.2      0.18    -0.04    -0.14
-------------------------------------------------------------------


Maximum memory used throughout the entire EPRNMR-calculation: 307.7 MB

Timings for individual modules:

Sum of individual times         ...     3882.650 sec (=  64.711 min)
GTO integral calculation        ...        1.466 sec (=   0.024 min)   0.0 %
Spin-Orbit-Coupling Matrices    ...       10.555 sec (=   0.176 min)   0.3 %
SCF iterations                  ...      359.591 sec (=   5.993 min)   9.3 %
EPR/NMR calculation             ...     3511.037 sec (=  58.517 min)  90.4 %
                             ****ORCA TERMINATED NORMALLY****
TOTAL RUN TIME: 0 days 1 hours 4 minutes 43 seconds 891 msec
