
                                 *****************
                                 * O   R   C   A *
                                 *****************

                                            #,                                       
                                            ###                                      
                                            ####                                     
                                            #####                                    
                                            ######                                   
                                           ########,                                 
                                     ,,################,,,,,                         
                               ,,#################################,,                 
                          ,,##########################################,,             
                       ,#########################################, ''#####,          
                    ,#############################################,,   '####,        
                  ,##################################################,,,,####,       
                ,###########''''           ''''###############################       
              ,#####''   ,,,,##########,,,,          '''####'''          '####       
            ,##' ,,,,###########################,,,                        '##       
           ' ,,###''''                  '''############,,,                           
         ,,##''                                '''############,,,,        ,,,,,,###''
      ,#''                                            '''#######################'''  
     '                                                          ''''####''''         
             ,#######,   #######,   ,#######,      ##                                
            ,#'     '#,  ##    ##  ,#'     '#,    #''#        ######   ,####,        
            ##       ##  ##   ,#'  ##            #'  '#       #        #'  '#        
            ##       ##  #######   ##           ,######,      #####,   #    #        
            '#,     ,#'  ##    ##  '#,     ,#' ,#      #,         ##   #,  ,#        
             '#######'   ##     ##  '#######'  #'      '#     #####' # '####'        



                  #######################################################
                  #                        -***-                        #
                  #          Department of theory and spectroscopy      #
                  #    Directorship and core code : Frank Neese         #
                  #        Max Planck Institute fuer Kohlenforschung    #
                  #                Kaiser Wilhelm Platz 1               #
                  #                 D-45470 Muelheim/Ruhr               #
                  #                      Germany                        #
                  #                                                     #
                  #                  All rights reserved                #
                  #                        -***-                        #
                  #######################################################


                         Program Version 5.0.4 -  RELEASE  -


 With contributions from (in alphabetic order):
   Daniel Aravena         : Magnetic Suceptibility
   Michael Atanasov       : Ab Initio Ligand Field Theory (pilot matlab implementation)
   Alexander A. Auer      : GIAO ZORA, VPT2 properties, NMR spectrum
   Ute Becker             : Parallelization
   Giovanni Bistoni       : ED, misc. LED, open-shell LED, HFLD
   Martin Brehm           : Molecular dynamics
   Dmytro Bykov           : SCF Hessian
   Vijay G. Chilkuri      : MRCI spin determinant printing, contributions to CSF-ICE
   Dipayan Datta          : RHF DLPNO-CCSD density
   Achintya Kumar Dutta   : EOM-CC, STEOM-CC
   Dmitry Ganyushin       : Spin-Orbit,Spin-Spin,Magnetic field MRCI
   Miquel Garcia          : C-PCM and meta-GGA Hessian, CC/C-PCM, Gaussian charge scheme
   Yang Guo               : DLPNO-NEVPT2, F12-NEVPT2, CIM, IAO-localization
   Andreas Hansen         : Spin unrestricted coupled pair/coupled cluster methods
   Benjamin Helmich-Paris : MC-RPA, TRAH-SCF, COSX integrals
   Lee Huntington         : MR-EOM, pCC
   Robert Izsak           : Overlap fitted RIJCOSX, COSX-SCS-MP3, EOM
   Marcus Kettner         : VPT2
   Christian Kollmar      : KDIIS, OOCD, Brueckner-CCSD(T), CCSD density, CASPT2, CASPT2-K
   Simone Kossmann        : Meta GGA functionals, TD-DFT gradient, OOMP2, MP2 Hessian
   Martin Krupicka        : Initial AUTO-CI
   Lucas Lang             : DCDCAS
   Marvin Lechner         : AUTO-CI (C++ implementation), FIC-MRCC
   Dagmar Lenk            : GEPOL surface, SMD
   Dimitrios Liakos       : Extrapolation schemes; Compound Job, initial MDCI parallelization
   Dimitrios Manganas     : Further ROCIS development; embedding schemes
   Dimitrios Pantazis     : SARC Basis sets
   Anastasios Papadopoulos: AUTO-CI, single reference methods and gradients
   Taras Petrenko         : DFT Hessian,TD-DFT gradient, ASA, ECA, R-Raman, ABS, FL, XAS/XES, NRVS
   Peter Pinski           : DLPNO-MP2, DLPNO-MP2 Gradient
   Christoph Reimann      : Effective Core Potentials
   Marius Retegan         : Local ZFS, SOC
   Christoph Riplinger    : Optimizer, TS searches, QM/MM, DLPNO-CCSD(T), (RO)-DLPNO pert. Triples
   Tobias Risthaus        : Range-separated hybrids, TD-DFT gradient, RPA, STAB
   Michael Roemelt        : Original ROCIS implementation
   Masaaki Saitow         : Open-shell DLPNO-CCSD energy and density
   Barbara Sandhoefer     : DKH picture change effects
   Avijit Sen             : IP-ROCIS
   Kantharuban Sivalingam : CASSCF convergence, NEVPT2, FIC-MRCI
   Bernardo de Souza      : ESD, SOC TD-DFT
   Georgi Stoychev        : AutoAux, RI-MP2 NMR, DLPNO-MP2 response
   Willem Van den Heuvel  : Paramagnetic NMR
   Boris Wezisla          : Elementary symmetry handling
   Frank Wennmohs         : Technical directorship


 We gratefully acknowledge several colleagues who have allowed us to
 interface, adapt or use parts of their codes:
   Stefan Grimme, W. Hujo, H. Kruse, P. Pracht,  : VdW corrections, initial TS optimization,
                  C. Bannwarth, S. Ehlert          DFT functionals, gCP, sTDA/sTD-DF
   Ed Valeev, F. Pavosevic, A. Kumar             : LibInt (2-el integral package), F12 methods
   Garnet Chan, S. Sharma, J. Yang, R. Olivares  : DMRG
   Ulf Ekstrom                                   : XCFun DFT Library
   Mihaly Kallay                                 : mrcc  (arbitrary order and MRCC methods)
   Jiri Pittner, Ondrej Demel                    : Mk-CCSD
   Frank Weinhold                                : gennbo (NPA and NBO analysis)
   Christopher J. Cramer and Donald G. Truhlar   : smd solvation model
   Lars Goerigk                                  : TD-DFT with DH, B97 family of functionals
   V. Asgeirsson, H. Jonsson                     : NEB implementation
   FAccTs GmbH                                   : IRC, NEB, NEB-TS, DLPNO-Multilevel, CI-OPT
                                                   MM, QMMM, 2- and 3-layer-ONIOM, Crystal-QMMM,
                                                   LR-CPCM, SF, NACMEs, symmetry and pop. for TD-DFT,
                                                   nearIR, NL-DFT gradient (VV10), updates on ESD,
                                                   ML-optimized integration grids
   S Lehtola, MJT Oliveira, MAL Marques          : LibXC Library
   Liviu Ungur et al                             : ANISO software


 Your calculation uses the libint2 library for the computation of 2-el integrals
 For citations please refer to: http://libint.valeyev.net

 Your ORCA version has been built with support for libXC version: 5.1.0
 For citations please refer to: https://tddft.org/programs/libxc/

 This ORCA versions uses:
   CBLAS   interface :  Fast vector & matrix operations
   LAPACKE interface :  Fast linear algebra routines
   SCALAPACK package :  Parallel linear algebra routines
   Shared memory     :  Shared parallel matrices
   BLAS/LAPACK       :  OpenBLAS 0.3.15  USE64BITINT DYNAMIC_ARCH NO_AFFINITY Prescott SINGLE_THREADED
        Core in use  :  Prescott
   Copyright (c) 2011-2014, The OpenBLAS Project


================================================================================

----- Orbital basis set information -----
Your calculation utilizes the basis: TZVP 

The basis set includes element-specific modifications.

Your calculation utilizes the basis: CP(PPP) 

----- AuxJ basis set information -----
Your calculation utilizes the auxiliary basis: def2/J
   F. Weigend, Phys. Chem. Chem. Phys. 8, 1057 (2006).

================================================================================
                                        WARNINGS
                       Please study these warnings very carefully!
================================================================================


WARNING: your system is open-shell and RHF/RKS was chosen
  ===> : WILL SWITCH to UHF/UKS


INFO   : the flag for use of the SHARK integral package has been found!

================================================================================
                                       INPUT FILE
================================================================================
NAME = input_86.inp
|  1> ! nofrozencore ReducedPop printbasis
|  2> ! B3LYP TZVP
|  3> 
|  4> %basis
|  5> newgto V "CP(PPP)" end
|  6> end
|  7> 
|  8> %pal
|  9> nprocs 8
| 10> end
| 11> 
| 12> % sym SymThresh 1e-2 end
| 13> * xyz -2 2 
| 14> V -0.15694905004165757 0.6341901561441589 -0.9012802948416595
| 15> S -2.0235721208366404 1.3835622219907326 0.5384365984577656
| 16> S 1.3024767698406288 1.8872641257256733 0.6567466493888128
| 17> S -1.5212234172798071 -1.3902169954449024 -1.3150596022955363
| 18> S 1.739015509533499 -0.9287071490321408 -1.1208751899955405
| 19> O -0.20506747490295793 1.5085372517877744 -2.2266064614166807
| 20> C 2.8622662818307907 1.2289631707729747 0.17698554349770584
| 21> C 3.036244204023415 0.10115395806276477 -0.530844543761598
| 22> C -3.2455686966338146 0.17471685540654253 0.16986065187834293
| 23> C -3.0433084627543217 -0.9341684007610287 -0.5678990923522516
| 24> S 4.3560260034446445 2.065979234453757 0.7231502417512937
| 25> S 4.731749533639743 -0.415844684404876 -0.8153239541294526
| 26> S -4.445402265022259 -2.0411518368371424 -0.7500382217422933
| 27> S -4.891433024959884 0.38594452755844677 0.8576841640601122
| 28> C 5.519900886634089 0.9116632033505513 0.05173945440207295
| 29> C -5.57351679571723 -1.128849977811424 0.25681673751354933
| 30> C 6.864976776473736 1.0343184107396484 0.17561187221337074
| 31> C -6.849836837849632 -1.548321412958147 0.5342971178796047
| 32> S 7.61985545485433 2.4217786717353533 1.0105035642705493
| 33> S 7.989972694588944 -0.16650356559711674 -0.5200637998808788
| 34> S -7.95133004948177 -0.5950518341489489 1.5576849667224821
| 35> S -7.484013722881836 -3.095375535594539 -0.07882568511714606
| 36> C -7.749133717474331 -3.934015169494789 1.5302281220763643
| 37> C -8.154846317852504 -1.7948620200713654 2.9295951797317987
| 38> C -8.689536996695475 -3.1799513022023307 2.4983564342225706
| 39> H -6.819264899154992 -4.1084534306529426 2.0922285210188525
| 40> H -8.19738910304701 -4.926160367021185 1.3816812618725975
| 41> H -8.882424785499552 -3.7968799709798087 3.3868606056571906
| 42> H -9.645960637026452 -3.026982003567585 1.9859883075341176
| 43> H -8.866105489836901 -1.412996018534289 3.6748620471532343
| 44> H -7.223351630311592 -1.9931872713008967 3.4807284915482786
| 45> C 8.886590576828263 0.975520328595816 -1.7452635699049714
| 46> C 8.571420802364269 3.1384643971877395 -0.470815258215034
| 47> C 9.510131692168938 2.1351621755546857 -1.0480770941450586
| 48> H 7.63393085055313 3.4836761211095553 -0.9858590916846476
| 49> H 8.954700242964414 3.987341089120333 0.1583750996456181
| 50> H 10.30577018842281 1.8404581050949211 -0.353143151308528
| 51> H 10.002379992206249 2.690481652311993 -1.8645772245347414
| 52> H 9.51781461351569 0.12248430928379904 -2.114410963726649
| 53> H 7.990841303664902 1.0621091179194517 -2.41792457460554
| 54> * 
| 55> 
| 56> % eprnmr
| 57> gtensor true
| 58> Nuclei = all H {aiso,adip,aorb,fgrad,rho}
| 59> Nuclei = all V {aiso,adip,aorb,fgrad,rho}
| 60> end
| 61> 
| 62>                          ****END OF INPUT****
================================================================================

------------------------------------------------------------------------------
                            SYMMETRY HANDLING SETUP
------------------------------------------------------------------------------

------------------
SYMMETRY DETECTION
------------------
The point group will now be determined using a tolerance of 1.0000e-02.
Splitting atom subsets according to nuclear charge, mass and basis set.
Splitting atom subsets according to distance from the molecule's center.
Identifying relative distance patterns of the atoms.
Splitting atom subsets according to atoms' relative distance patterns.
Bring atoms of each subset into input order.
The molecule is neither linear nor planar.
There is at least one atom subset not centered around the molecule's center.
The molecule does not have a center of inversion.
Analyzing the first atom subset for its symmetry.
The subset is an off-center atom pair.
Testing point group C2v.
Test failed.
Testing point group C2.
Test failed.
Testing point group Cs.
Test failed.
Testing point group Cs.
Test failed.
No testing is needed for point group C1.
This point group has been found:    C1
Largest non-degenerate subgroup:    C1


Mass-centered symmetry-perfected Cartesians (point group C1):

Atom          Symmetry-perfected Cartesians (x, y, z; au)
  0      -0.291737924826    1.196098527739   -1.698332649258
  1      -3.819144323887    2.612206504600    1.022337989458
  2       2.466177187525    3.564065155794    1.245911584608
  3      -2.869842850434   -2.629476572316   -2.480262220229
  4       3.291115852392   -1.757349354488   -2.113306861506
  5      -0.382668569809    2.848375084495   -4.202836142204
  6       5.413752191750    2.320056637234    0.339294484766
  7       5.742522818042    0.188806093899   -0.998310529503
  8      -6.128383188733    0.327819823496    0.325830390872
  9      -5.746166738918   -1.767669624604   -1.068333478356
 10       8.236548975482    3.901787767284    1.371396188481
 11       8.946563549621   -0.788179751974   -1.535898705838
 12      -8.395740039273   -3.859565153575   -1.412526551174
 13      -9.238616022860    0.726982275769    1.625628457367
 14      10.435953758860    1.720446596504    0.102613677031
 15     -10.527567549984   -2.135564488549    0.490153578400
 16      12.977778819997    1.952231347368    0.336698622241
 17     -12.939462888849   -2.928250621979    1.014515504828
 18      14.404292786473    4.574151262349    1.914415271715
 19      15.103713007014   -0.316993323502   -0.977937876049
 20     -15.020983397207   -1.126832186231    2.948438267924
 21     -14.137883522023   -5.851759228116   -0.144118679298
 22     -14.638887704429   -7.436558461239    2.896552351042
 23     -15.405573408225   -3.394144850314    5.540972850841
 24     -16.415992357599   -6.011584264571    4.726049723493
 25     -12.881690297333   -7.766199002105    3.958579192197
 26     -15.485967621217   -9.311441169649    2.615839467203
 27     -16.780497453016   -7.177410492725    6.405079276351
 28     -18.223371105832   -5.722514183253    3.757814284302
 29     -16.749658453515   -2.672522687553    6.949323126953
 30     -13.645303553570   -3.768925260579    6.582463873456
 31      16.798075251223    1.841119074917   -3.293229900738
 32      16.202490691796    5.928491007545   -0.884871619805
 33      17.976397192457    4.032524579104   -1.975738397278
 34      14.430891429570    6.580846623976   -1.858163412028
 35      16.926783867293    7.532635476767    0.304125842655
 36      19.479936051981    3.475614595383   -0.662503564150
 37      18.906611669415    5.081926307007   -3.518700032025
 38      17.990915809710    0.229114616047   -3.990817378111
 39      15.105354440285    2.004748173006   -4.564374980590


------------------
SYMMETRY REDUCTION
------------------
ORCA supports only abelian point groups.
It is now checked, if the determined point group is supported:
Point Group ( C1    ) is          ... supported

The point group is C1 - hence turning off symmetry
If this is a round-off problem, please increase the symmetry
        detection tolerance (%method SymThresh)

Storing the symmetry object:
Symmetry file                     ... input_86.sym.tmp
Writing symmetry information      ... done

                       ****************************
                       * Single Point Calculation *
                       ****************************

---------------------------------
CARTESIAN COORDINATES (ANGSTROEM)
---------------------------------
  V     -0.154381    0.632948   -0.898719
  S     -2.021004    1.382320    0.540998
  S      1.305045    1.886022    0.659308
  S     -1.518655   -1.391459   -1.312498
  S      1.741583   -0.929949   -1.118314
  O     -0.202499    1.507295   -2.224045
  C      2.864834    1.227721    0.179547
  C      3.038812    0.099912   -0.528283
  C     -3.243001    0.173475    0.172422
  C     -3.040740   -0.935410   -0.565338
  S      4.358594    2.064737    0.725712
  S      4.734318   -0.417087   -0.812763
  S     -4.442834   -2.042394   -0.747477
  S     -4.888865    0.384702    0.860246
  C      5.522469    0.910421    0.054301
  C     -5.570949   -1.130092    0.259378
  C      6.867545    1.033076    0.178173
  C     -6.847269   -1.549563    0.536858
  S      7.622423    2.420537    1.013065
  S      7.992541   -0.167746   -0.517502
  S     -7.948762   -0.596294    1.560246
  S     -7.481446   -3.096618   -0.076264
  C     -7.746566   -3.935257    1.532789
  C     -8.152278   -1.796104    2.932157
  C     -8.686969   -3.181193    2.500918
  H     -6.816697   -4.109696    2.094790
  H     -8.194821   -4.927402    1.384243
  H     -8.879857   -3.798122    3.389422
  H     -9.643393   -3.028224    1.988550
  H     -8.863538   -1.414238    3.677423
  H     -7.220784   -1.994429    3.483290
  C      8.889159    0.974278   -1.742702
  C      8.573989    3.137222   -0.468254
  C      9.512700    2.133920   -1.045516
  H      7.636499    3.482434   -0.983298
  H      8.957268    3.986099    0.160936
  H     10.308338    1.839216   -0.350582
  H     10.004948    2.689240   -1.862016
  H      9.520383    0.121242   -2.111850
  H      7.993409    1.060867   -2.415363

----------------------------
CARTESIAN COORDINATES (A.U.)
----------------------------
  NO LB      ZA    FRAG     MASS         X           Y           Z
   0 V    23.0000    0    50.940   -0.291738    1.196099   -1.698333
   1 S    16.0000    0    32.060   -3.819144    2.612207    1.022338
   2 S    16.0000    0    32.060    2.466177    3.564065    1.245912
   3 S    16.0000    0    32.060   -2.869843   -2.629477   -2.480262
   4 S    16.0000    0    32.060    3.291116   -1.757349   -2.113307
   5 O     8.0000    0    15.999   -0.382669    2.848375   -4.202836
   6 C     6.0000    0    12.011    5.413752    2.320057    0.339294
   7 C     6.0000    0    12.011    5.742523    0.188806   -0.998311
   8 C     6.0000    0    12.011   -6.128383    0.327820    0.325830
   9 C     6.0000    0    12.011   -5.746167   -1.767670   -1.068333
  10 S    16.0000    0    32.060    8.236549    3.901788    1.371396
  11 S    16.0000    0    32.060    8.946564   -0.788180   -1.535899
  12 S    16.0000    0    32.060   -8.395740   -3.859565   -1.412527
  13 S    16.0000    0    32.060   -9.238616    0.726982    1.625628
  14 C     6.0000    0    12.011   10.435954    1.720447    0.102614
  15 C     6.0000    0    12.011  -10.527568   -2.135564    0.490154
  16 C     6.0000    0    12.011   12.977779    1.952231    0.336699
  17 C     6.0000    0    12.011  -12.939463   -2.928251    1.014516
  18 S    16.0000    0    32.060   14.404293    4.574151    1.914415
  19 S    16.0000    0    32.060   15.103713   -0.316993   -0.977938
  20 S    16.0000    0    32.060  -15.020983   -1.126832    2.948438
  21 S    16.0000    0    32.060  -14.137884   -5.851759   -0.144119
  22 C     6.0000    0    12.011  -14.638888   -7.436558    2.896552
  23 C     6.0000    0    12.011  -15.405573   -3.394145    5.540973
  24 C     6.0000    0    12.011  -16.415992   -6.011584    4.726050
  25 H     1.0000    0     1.008  -12.881690   -7.766199    3.958579
  26 H     1.0000    0     1.008  -15.485968   -9.311441    2.615839
  27 H     1.0000    0     1.008  -16.780497   -7.177410    6.405079
  28 H     1.0000    0     1.008  -18.223371   -5.722514    3.757814
  29 H     1.0000    0     1.008  -16.749658   -2.672523    6.949323
  30 H     1.0000    0     1.008  -13.645304   -3.768925    6.582464
  31 C     6.0000    0    12.011   16.798075    1.841119   -3.293230
  32 C     6.0000    0    12.011   16.202491    5.928491   -0.884872
  33 C     6.0000    0    12.011   17.976397    4.032525   -1.975738
  34 H     1.0000    0     1.008   14.430891    6.580847   -1.858163
  35 H     1.0000    0     1.008   16.926784    7.532635    0.304126
  36 H     1.0000    0     1.008   19.479936    3.475615   -0.662504
  37 H     1.0000    0     1.008   18.906612    5.081926   -3.518700
  38 H     1.0000    0     1.008   17.990916    0.229115   -3.990817
  39 H     1.0000    0     1.008   15.105354    2.004748   -4.564375

--------------------------------
INTERNAL COORDINATES (ANGSTROEM)
--------------------------------
 V      0   0   0     0.000000000000     0.00000000     0.00000000
 S      1   0   0     2.473585437042     0.00000000     0.00000000
 S      1   2   0     2.475392101452    85.71091646     0.00000000
 S      1   2   3     2.476021441705    85.93817220   148.62118366
 S      1   2   3     2.466891062789   145.45899239    75.87386301
 O      1   2   3     1.588485969179   107.21758035   255.26796780
 C      3   1   2     1.759680137903    99.30115634   165.56222970
 C      7   3   1     1.342849719855   124.94209518   342.87789541
 C      2   1   3     1.757962166820   101.19818482   202.40013398
 C      9   2   1     1.347154465443   125.20284600     8.19886353
 S      7   3   1     1.797278463231   118.66163110   165.80842589
 S      8   7   3     1.795258882165   116.59942643   183.45054635
 S     10   9   2     1.795676479926   116.47163970   177.94059631
 S      9   2   1     1.796270497628   118.40967994   186.34570992
 C     12   8   7     1.770666174550    97.28945783     0.25702248
 C     13  10   9     1.765982441964    97.03582146   358.18690570
 C     15  12   8     1.356325117817   123.63809736   179.57393319
 C     16  13  10     1.371839821678   123.48257978   182.69539846
 S     17  15  12     1.786597865324   122.13571534   177.79337151
 S     17  15  12     1.786492058581   121.88058486   359.18880663
 S     18  16  13     1.780262024061   121.88309810   179.90181143
 S     18  16  13     1.780863934002   121.82327830     1.33745855
 C     22  18  16     1.833755491205    98.43454027   116.45937043
 C     21  18  16     1.833875946266    98.53301189   243.38106077
 C     23  22  18     1.546041096577   114.47827281    57.51922046
 H     23  22  18     1.100422271062   113.48188907   295.98337189
 H     23  22  18     1.098795319132   110.68935003   177.33203121
 H     25  23  22     1.098747625293   109.83433161   173.81220493
 H     25  23  22     1.095749461946   107.83069637    56.76717508
 H     24  21  18     1.098696480625   110.60331335   183.04668406
 H     24  21  18     1.100346847856   113.49529884    64.42504666
 C     20  17  15     1.899804378910    98.29527259   117.44695239
 C     19  17  15     1.900899916750    98.05616894   242.67953681
 C     32  20  17     1.489846206063   111.32329066    57.57052617
 H     33  19  17     1.123978956420    93.17321835    70.14373037
 H     33  19  17     1.123999677099    91.10118703   178.23720703
 H     34  32  20     1.096733463870   113.01600099    64.43743557
 H     34  32  20     1.103340642359   103.42532961   178.93887642
 H     32  20  17     1.123558646934    91.18271196   181.29459339
 H     32  20  17     1.123537808022    93.21975074   289.44009357

---------------------------
INTERNAL COORDINATES (A.U.)
---------------------------
 V      0   0   0     0.000000000000     0.00000000     0.00000000
 S      1   0   0     4.674399044866     0.00000000     0.00000000
 S      1   2   0     4.677813145816    85.71091646     0.00000000
 S      1   2   3     4.679002426540    85.93817220   148.62118366
 S      1   2   3     4.661748510890   145.45899239    75.87386301
 O      1   2   3     3.001803449326   107.21758035   255.26796780
 C      3   1   2     3.325313543938    99.30115634   165.56222970
 C      7   3   1     2.537618209538   124.94209518   342.87789541
 C      2   1   3     3.322067049084   101.19818482   202.40013398
 C      9   2   1     2.545752999776   125.20284600     8.19886353
 S      7   3   1     3.396364081901   118.66163110   165.80842589
 S      8   7   3     3.392547626782   116.59942643   183.45054635
 S     10   9   2     3.393336772184   116.47163970   177.94059631
 S      9   2   1     3.394459302959   118.40967994   186.34570992
 C     12   8   7     3.346074144497    97.28945783     0.25702248
 C     13  10   9     3.337223172625    97.03582146   358.18690570
 C     15  12   8     2.563083021233   123.63809736   179.57393319
 C     16  13  10     2.592401562578   123.48257978   182.69539846
 S     17  15  12     3.376180676912   122.13571534   177.79337151
 S     17  15  12     3.375980731143   121.88058486   359.18880663
 S     18  16  13     3.364207672096   121.88309810   179.90181143
 S     18  16  13     3.365345117042   121.82327830     1.33745855
 C     22  18  16     3.465295674952    98.43454027   116.45937043
 C     21  18  16     3.465523302029    98.53301189   243.38106077
 C     23  22  18     2.921594264318   114.47827281    57.51922046
 H     23  22  18     2.079496723975   113.48188907   295.98337189
 H     23  22  18     2.076422230394   110.68935003   177.33203121
 H     25  23  22     2.076332102099   109.83433161   173.81220493
 H     25  23  22     2.070666394470   107.83069637    56.76717508
 H     24  21  18     2.076235452685   110.60331335   183.04668406
 H     24  21  18     2.079354194771   113.49529884    64.42504666
 C     20  17  15     3.590109984164    98.29527259   117.44695239
 C     19  17  15     3.592180250651    98.05616894   242.67953681
 C     32  20  17     2.815401311121   111.32329066    57.57052617
 H     33  19  17     2.124012407924    93.17321835    70.14373037
 H     33  19  17     2.124051564332    91.10118703   178.23720703
 H     34  32  20     2.072525888622   113.01600099    64.43743557
 H     34  32  20     2.085011646484   103.42532961   178.93887642
 H     32  20  17     2.123218138105    91.18271196   181.29459339
 H     32  20  17     2.123178758267    93.21975074   289.44009357

---------------------
BASIS SET INFORMATION
---------------------
There are 5 groups of distinct atoms

 Group   1 Type V   : 17s11p5d1f contracted to 17s7p3d1f pattern {11111111111111111/3311111/311/1}
 Group   2 Type S   : 14s9p1d contracted to 5s4p1d pattern {73211/6111/1}
 Group   3 Type O   : 11s6p1d contracted to 5s3p1d pattern {62111/411/1}
 Group   4 Type C   : 11s6p1d contracted to 5s3p1d pattern {62111/411/1}
 Group   5 Type H   : 5s1p contracted to 3s1p pattern {311/1}

Atom   0V    basis set group =>   1
Atom   1S    basis set group =>   2
Atom   2S    basis set group =>   2
Atom   3S    basis set group =>   2
Atom   4S    basis set group =>   2
Atom   5O    basis set group =>   3
Atom   6C    basis set group =>   4
Atom   7C    basis set group =>   4
Atom   8C    basis set group =>   4
Atom   9C    basis set group =>   4
Atom  10S    basis set group =>   2
Atom  11S    basis set group =>   2
Atom  12S    basis set group =>   2
Atom  13S    basis set group =>   2
Atom  14C    basis set group =>   4
Atom  15C    basis set group =>   4
Atom  16C    basis set group =>   4
Atom  17C    basis set group =>   4
Atom  18S    basis set group =>   2
Atom  19S    basis set group =>   2
Atom  20S    basis set group =>   2
Atom  21S    basis set group =>   2
Atom  22C    basis set group =>   4
Atom  23C    basis set group =>   4
Atom  24C    basis set group =>   4
Atom  25H    basis set group =>   5
Atom  26H    basis set group =>   5
Atom  27H    basis set group =>   5
Atom  28H    basis set group =>   5
Atom  29H    basis set group =>   5
Atom  30H    basis set group =>   5
Atom  31C    basis set group =>   4
Atom  32C    basis set group =>   4
Atom  33C    basis set group =>   4
Atom  34H    basis set group =>   5
Atom  35H    basis set group =>   5
Atom  36H    basis set group =>   5
Atom  37H    basis set group =>   5
Atom  38H    basis set group =>   5
Atom  39H    basis set group =>   5

-------------------------
BASIS SET IN INPUT FORMAT
-------------------------

 # Basis set for element : H 
 NewGTO H 
 S 3 
   1      34.0613410000      0.0254393168
   2       5.1235746000      0.1900859340
   3       1.1646626000      0.8524411390
 S 1 
   1       0.3272304100      1.0000000000
 S 1 
   1       0.1030724100      1.0000000000
 P 1 
   1       0.8000000000      1.0000000000
  end;

 # Basis set for element : C 
 NewGTO C 
 S 6 
   1   13575.3496820000      0.0006064601
   2    2035.2333680000      0.0046978985
   3     463.2256235900      0.0243324735
   4     131.2001959800      0.0973999560
   5      42.8530158900      0.3019558443
   6      15.5841857700      0.6623361013
 S 2 
   1       6.2067138500      0.6559530795
   2       2.5764896500      0.3758563390
 S 1 
   1       0.5769633900      1.0000000000
 S 1 
   1       0.2297283100      1.0000000000
 S 1 
   1       0.0951644400      1.0000000000
 P 4 
   1      34.6972322400      0.0113272290
   2       7.9582622800      0.0761696612
   3       2.3780826900      0.3019225154
   4       0.8143320800      0.7278502776
 P 1 
   1       0.2888754700      1.0000000000
 P 1 
   1       0.1005682400      1.0000000000
 D 1 
   1       0.8000000000      1.0000000000
  end;

 # Basis set for element : O 
 NewGTO O 
 S 6 
   1   27032.3826310000      0.0005722654
   2    4052.3871392000      0.0044353333
   3     922.3272271000      0.0230201034
   4     261.2407098900      0.0928224938
   5      85.3546413500      0.2937849971
   6      31.0350352400      0.6740160462
 S 2 
   1      12.2608607300      0.6383993750
   2       4.9987076000      0.3953458663
 S 1 
   1       1.1703108200      1.0000000000
 S 1 
   1       0.4647474100      1.0000000000
 S 1 
   1       0.1850453600      1.0000000000
 P 4 
   1      63.2749548000      0.0120183316
   2      14.6270493800      0.0830054304
   3       4.4501223500      0.3199174388
   4       1.5275799600      0.7071554258
 P 1 
   1       0.5293511800      1.0000000000
 P 1 
   1       0.1747842100      1.0000000000
 D 1 
   1       1.2000000000      1.0000000000
  end;

 # Basis set for element : S 
 NewGTO S 
 S 7 
   1   60700.9281040000      0.0005238013
   2    9102.6106854000      0.0040506304
   3    2071.4166009000      0.0208270003
   4     586.0247682100      0.0814968475
   5     190.5539502100      0.2374911358
   6      67.6303842600      0.4472617145
   7      25.1273069100      0.3489191913
 S 3 
   1     112.5746301000      0.1004556993
   2      34.7955542200      0.4339117282
   3       6.5115556200     -1.2084330582
 S 2 
   1       3.2399032300      0.6749812922
   2       1.5477160900      0.3470879597
 S 1 
   1       0.4054103000      1.0000000000
 S 1 
   1       0.1455065100      1.0000000000
 P 6 
   1     564.3671602700      0.0025564845
   2     133.4262437900      0.0202874255
   3      42.4682711900      0.0927670112
   4      15.6165275800      0.2650208365
   5       6.1093988500      0.4486298663
   6       2.4404160200      0.3596369916
 P 1 
   1       0.8388220100      1.0000000000
 P 1 
   1       0.3128874700      1.0000000000
 P 1 
   1       0.1077010900      1.0000000000
 D 1 
   1       0.5500000000      1.0000000000
  end;

 # Basis set for element : V 
 NewGTO V 
 S 1 
   1  4239814.9912500000      1.0000000000
 S 1 
   1  1695925.9965000001      1.0000000000
 S 1 
   1  678370.3986000001      1.0000000000
 S 1 
   1  271348.1594400000      1.0000000000
 S 1 
   1   40672.0050780000      1.0000000000
 S 1 
   1    9257.0761385000      1.0000000000
 S 1 
   1    2622.7328773000      1.0000000000
 S 1 
   1     858.5948018500      1.0000000000
 S 1 
   1     314.1941865000      1.0000000000
 S 1 
   1     124.4786212700      1.0000000000
 S 1 
   1      50.4693993090      1.0000000000
 S 1 
   1      12.5138469110      1.0000000000
 S 1 
   1       5.3447758082      1.0000000000
 S 1 
   1       1.5755631295      1.0000000000
 S 1 
   1       0.6306903307      1.0000000000
 S 1 
   1       0.0879544416      1.0000000000
 S 1 
   1       0.0342969197      1.0000000000
 P 3 
   1    1450.0319327000     -0.0222847647
   2     343.7504988400     -0.1817959329
   3     110.8252170800     -0.8607412073
 P 3 
   1      41.8224645460     -0.2522537814
   2      17.0880737100     -0.4620379520
   3       7.2613218939     -0.3990010670
 P 1 
   1       2.9458145262      1.0000000000
 P 1 
   1       1.1650209680      1.0000000000
 P 1 
   1       0.4339937839      1.0000000000
 D 3 
   1      27.3603358640      0.0575501019
   2       7.4542765527      0.3023798347
   3       2.4632270217      0.7724212088
 D 1 
   1       0.8249954244      1.0000000000
 D 1 
   1       0.2526297057      1.0000000000
 P 1 
   1       0.1112480000      1.0000000000
 P 1 
   1       0.0363780000      1.0000000000
 F 1 
   1       1.8000000000      1.0000000000
  end;

---------------------------------
AUXILIARY/J BASIS SET INFORMATION
---------------------------------
There are 5 groups of distinct atoms

 Group   1 Type V   : 19s5p5d3f3g contracted to 8s5p5d2f3g pattern {121111111/11111/11111/21/111}
 Group   2 Type S   : 14s5p5d2f1g contracted to 8s4p3d1f1g pattern {71111111/2111/311/2/1}
 Group   3 Type O   : 12s5p4d2f1g contracted to 6s4p3d1f1g pattern {711111/2111/211/2/1}
 Group   4 Type C   : 12s5p4d2f1g contracted to 6s4p3d1f1g pattern {711111/2111/211/2/1}
 Group   5 Type H   : 5s2p1d contracted to 3s1p1d pattern {311/2/1}

Atom   0V    basis set group =>   1
Atom   1S    basis set group =>   2
Atom   2S    basis set group =>   2
Atom   3S    basis set group =>   2
Atom   4S    basis set group =>   2
Atom   5O    basis set group =>   3
Atom   6C    basis set group =>   4
Atom   7C    basis set group =>   4
Atom   8C    basis set group =>   4
Atom   9C    basis set group =>   4
Atom  10S    basis set group =>   2
Atom  11S    basis set group =>   2
Atom  12S    basis set group =>   2
Atom  13S    basis set group =>   2
Atom  14C    basis set group =>   4
Atom  15C    basis set group =>   4
Atom  16C    basis set group =>   4
Atom  17C    basis set group =>   4
Atom  18S    basis set group =>   2
Atom  19S    basis set group =>   2
Atom  20S    basis set group =>   2
Atom  21S    basis set group =>   2
Atom  22C    basis set group =>   4
Atom  23C    basis set group =>   4
Atom  24C    basis set group =>   4
Atom  25H    basis set group =>   5
Atom  26H    basis set group =>   5
Atom  27H    basis set group =>   5
Atom  28H    basis set group =>   5
Atom  29H    basis set group =>   5
Atom  30H    basis set group =>   5
Atom  31C    basis set group =>   4
Atom  32C    basis set group =>   4
Atom  33C    basis set group =>   4
Atom  34H    basis set group =>   5
Atom  35H    basis set group =>   5
Atom  36H    basis set group =>   5
Atom  37H    basis set group =>   5
Atom  38H    basis set group =>   5
Atom  39H    basis set group =>   5

-------------------------------------
AUXILIARY/J BASIS SET IN INPUT FORMAT
-------------------------------------

 # Auxiliary/J basis set for element : H 
 NewAuxJGTO H 
 S 3 
   1      15.6752927000      0.1007184237
   2       3.6063578000      0.3404257499
   3       1.2080016000      0.6491996172
 S 1 
   1       0.4726794000      1.0000000000
 S 1 
   1       0.2018100000      1.0000000000
 P 2 
   1       2.0281365000      0.5596620919
   2       0.5358730000      0.5596620919
 D 1 
   1       2.2165124000      1.0000000000
  end;

 # Auxiliary/J basis set for element : C 
 NewAuxJGTO C 
 S 7 
   1    1861.0916331000      0.0134602335
   2     642.9939764000      0.0299160374
   3     235.1105725000      0.1008649584
   4      90.7028894000      0.2370970548
   5      36.7794552000      0.3924037254
   6      15.6046273000      0.3195862154
   7       6.8907294000      0.0530104441
 S 1 
   1       3.1478850000     -1.0000000000
 S 1 
   1       1.4777287000      1.0000000000
 S 1 
   1       0.7076466000      1.0000000000
 S 1 
   1       0.3430122000      1.0000000000
 S 1 
   1       0.1669453000      1.0000000000
 P 2 
   1      13.5472892000     -0.6769313712
   2       5.4669419000     -0.3779500978
 P 1 
   1       2.1751721000      1.0000000000
 P 1 
   1       0.8582194000      1.0000000000
 P 1 
   1       0.3376720000      1.0000000000
 D 2 
   1       5.9287253000     -0.3533329857
   2       1.9809209000     -0.7456525731
 D 1 
   1       0.8055417000     -1.0000000000
 D 1 
   1       0.3531244000     -1.0000000000
 F 2 
   1       1.6755626000      0.6311076882
   2       0.5997536000      0.4968166032
 G 1 
   1       1.0024600000     -1.0000000000
  end;

 # Auxiliary/J basis set for element : O 
 NewAuxJGTO O 
 S 7 
   1    2876.8216605000      0.0168151159
   2    1004.7443032000      0.0340137548
   3     369.7579954000      0.1194951309
   4     142.9442404000      0.2664627624
   5      57.8366425000      0.4202764046
   6      24.3864983000      0.2765077335
   7      10.6622662000      0.0057008815
 S 1 
   1       4.8070437000     -1.0000000000
 S 1 
   1       2.2210770000      1.0000000000
 S 1 
   1       1.0447795000      1.0000000000
 S 1 
   1       0.4968425000      1.0000000000
 S 1 
   1       0.2371384000      1.0000000000
 P 2 
   1      64.2613382000     -0.2731534179
   2      16.3006076000     -0.8168011598
 P 1 
   1       4.3550542000      1.0000000000
 P 1 
   1       1.2019554000      1.0000000000
 P 1 
   1       0.3354196000      1.0000000000
 D 2 
   1       9.2146611000     -0.4661230638
   2       2.8435251000     -0.6600908911
 D 1 
   1       0.9955759000     -1.0000000000
 D 1 
   1       0.3649441000     -1.0000000000
 F 2 
   1       2.6420115000      0.5931563945
   2       0.7345613000      0.5931563945
 G 1 
   1       1.3931000000     -1.0000000000
  end;

 # Auxiliary/J basis set for element : S 
 NewAuxJGTO S 
 S 7 
   1    7399.0303145000      0.0295137551
   2    2710.1675859000      0.0559686311
   3    1034.3279062000      0.1764696370
   4     410.4645411000      0.3577969368
   5     168.9762502000      0.4299293578
   6      71.9687889000      0.1259148089
   7      31.6172683000     -0.0646025788
 S 1 
   1      14.2796836000      1.0000000000
 S 1 
   1       6.6060948000      1.0000000000
 S 1 
   1       3.1181477000      1.0000000000
 S 1 
   1       1.4954039000     -1.0000000000
 S 1 
   1       0.7254779000      1.0000000000
 S 1 
   1       0.3544216000      1.0000000000
 S 1 
   1       0.1735525000      1.0000000000
 P 2 
   1      12.6998799000      1.4059102813
   2       4.4295784000     -1.2124994202
 P 1 
   1       1.5232889000      1.0000000000
 P 1 
   1       0.5194667000     -1.0000000000
 P 1 
   1       0.1766547000     -1.0000000000
 D 3 
   1      16.8546461000      1.0295742104
   2       5.0810461000     -0.7461553923
   3       1.5102323000      0.8357028005
 D 1 
   1       0.4451331000      1.0000000000
 D 1 
   1       0.1308362000      1.0000000000
 F 2 
   1       1.0809860000      0.5572698934
   2       0.4161474000      0.5572698934
 G 1 
   1       0.6707100000     -1.0000000000
  end;

 # Auxiliary/J basis set for element : V 
 NewAuxJGTO V 
 S 12 
   1   11942.0842430000      0.0459866720
   2    2430.7110193000      0.1744615821
   3     841.0764301000      0.2900402792
   4     494.7508273000      0.1411212903
   5     291.0298903000      0.2660697186
   6     171.1940483000      0.0446365706
   7      59.2366916000     -0.0408204801
   8      34.8451117000      0.1394665381
   9      20.4971240000      0.2164746715
  10      12.0571314000      0.0864266611
  11       7.0924300000     -0.0568501658
  12       4.1720176000     -0.0126212852
 S 1 
   1       2.4541279000      1.0000000000
 S 1 
   1       1.4436046000      1.0000000000
 S 1 
   1       0.8491792000      1.0000000000
 S 1 
   1       0.2938336000      1.0000000000
 S 1 
   1       0.1728433000      1.0000000000
 S 1 
   1       0.1016725000      1.0000000000
 S 1 
   1       0.0598074000      1.0000000000
 P 1 
   1      16.7130979000     -1.0000000000
 P 1 
   1       4.7454037000     -1.0000000000
 P 1 
   1       1.3889998000      1.0000000000
 P 1 
   1       0.4142440000     -1.0000000000
 P 1 
   1       0.1243234000      1.0000000000
 D 1 
   1       7.7143225000      1.0000000000
 D 1 
   1       3.1170731000      1.0000000000
 D 1 
   1       1.2767950000     -1.0000000000
 D 1 
   1       0.5273386000      1.0000000000
 D 1 
   1       0.2184050000      1.0000000000
 F 2 
   1       3.1309344000     -1.0825667766
   2       1.0419780000      0.1809223232
 F 1 
   1       0.3559044000      1.0000000000
 G 1 
   1       8.7130110000      1.0000000000
 G 1 
   1       2.7493872000      1.0000000000
 G 1 
   1       0.8775089000      1.0000000000
  end;



           ************************************************************
           *        Program running with 8 parallel MPI-processes     *
           *              working on a common directory               *
           ************************************************************
------------------------------------------------------------------------------
                           ORCA GTO INTEGRAL CALCULATION
                           -- RI-GTO INTEGRALS CHOSEN --
------------------------------------------------------------------------------
------------------------------------------------------------------------------
                   ___                                                        
                  /   \      - P O W E R E D   B Y -                         
                 /     \                                                     
                 |  |  |   _    _      __       _____    __    __             
                 |  |  |  | |  | |    /  \     |  _  \  |  |  /  |          
                  \  \/   | |  | |   /    \    | | | |  |  | /  /          
                 / \  \   | |__| |  /  /\  \   | |_| |  |  |/  /          
                |  |  |   |  __  | /  /__\  \  |    /   |      \           
                |  |  |   | |  | | |   __   |  |    \   |  |\   \          
                \     /   | |  | | |  |  |  |  | |\  \  |  | \   \       
                 \___/    |_|  |_| |__|  |__|  |_| \__\ |__|  \__/        
                                                                              
                      - O R C A' S   B I G   F R I E N D -                    
                                      &                                       
                       - I N T E G R A L  F E E D E R -                       
                                                                              
 v1 FN, 2020, v2 2021                                                         
------------------------------------------------------------------------------


Reading SHARK input file input_86.SHARKINP.tmp ... ok
----------------------
SHARK INTEGRAL PACKAGE
----------------------

Number of atoms                             ...     40
Number of basis functions                   ...    681
Number of shells                            ...    331
Maximum angular momentum                    ...      3
Integral batch strategy                     ... SHARK/LIBINT Hybrid
RI-J (if used) integral strategy            ... SPLIT-RIJ (Revised 2003 algorithm where possible)
Printlevel                                  ...      1
Contraction scheme used                     ... SEGMENTED contraction
Coulomb Range Separation                    ... NOT USED
Exchange Range Separation                   ... NOT USED
Finite Nucleus Model                        ... NOT USED
Auxiliary Coulomb fitting basis             ... AVAILABLE
   # of basis functions in Aux-J            ...   1568
   # of shells in Aux-J                     ...    512
   Maximum angular momentum in Aux-J        ...      4
Auxiliary J/K fitting basis                 ... NOT available
Auxiliary Correlation fitting basis         ... NOT available
Auxiliary 'external' fitting basis          ... NOT available
Integral threshold                          ...     1.000000e-10
Primitive cut-off                           ...     1.000000e-11
Primitive pair pre-selection threshold      ...     1.000000e-11

Calculating pre-screening integrals         ... done (  0.1 sec) Dimension = 331
Organizing shell pair data                  ... done (  0.1 sec)
Shell pair information
Total number of shell pairs                 ...     54946
Shell pairs after pre-screening             ...     22708
Total number of primitive shell pairs       ...    221635
Primitive shell pairs kept                  ...     55385
          la=0 lb=0:   6419 shell pairs
          la=1 lb=0:   9090 shell pairs
          la=1 lb=1:   3203 shell pairs
          la=2 lb=0:   2132 shell pairs
          la=2 lb=1:   1543 shell pairs
          la=2 lb=2:    197 shell pairs
          la=3 lb=0:     56 shell pairs
          la=3 lb=1:     55 shell pairs
          la=3 lb=2:     12 shell pairs
          la=3 lb=3:      1 shell pairs

Calculating one electron integrals          ... done (  0.0 sec)
Calculating RI/J V-Matrix + Cholesky decomp.... done (  0.1 sec)
Calculating Nuclear repulsion               ... done (  0.0 sec) ENN=   5062.548501861181 Eh

SHARK setup successfully completed in   0.6 seconds

Maximum memory used throughout the entire GTOINT-calculation: 39.8 MB


           ************************************************************
           *        Program running with 8 parallel MPI-processes     *
           *              working on a common directory               *
           ************************************************************
-------------------------------------------------------------------------------
                                 ORCA SCF
-------------------------------------------------------------------------------

------------
SCF SETTINGS
------------
Hamiltonian:
 Density Functional     Method          .... DFT(GTOs)
 Exchange Functional    Exchange        .... B88
   X-Alpha parameter    XAlpha          ....  0.666667
   Becke's b parameter  XBeta           ....  0.004200
 Correlation Functional Correlation     .... LYP
 LDA part of GGA corr.  LDAOpt          .... VWN-5
 Gradients option       PostSCFGGA      .... off
 Hybrid DFT is turned on
   Fraction HF Exchange ScalHFX         ....  0.200000
   Scaling of DF-GGA-X  ScalDFX         ....  0.720000
   Scaling of DF-GGA-C  ScalDFC         ....  0.810000
   Scaling of DF-LDA-C  ScalLDAC        ....  1.000000
   Perturbative correction              ....  0.000000
   Density functional embedding theory  .... OFF
   NL short-range parameter             ....  4.800000
 RI-approximation to the Coulomb term is turned on
   Number of AuxJ basis functions       .... 1568
   RIJ-COSX (HFX calculated with COS-X)).... on


General Settings:
 Integral files         IntName         .... input_86
 Hartree-Fock type      HFTyp           .... UHF
 Total Charge           Charge          ....   -2
 Multiplicity           Mult            ....    2
 Number of Electrons    NEL             ....  321
 Basis Dimension        Dim             ....  681
 Nuclear Repulsion      ENuc            ....   5062.5485018612 Eh

Convergence Acceleration:
 DIIS                   CNVDIIS         .... on
   Start iteration      DIISMaxIt       ....    12
   Startup error        DIISStart       ....  0.200000
   # of expansion vecs  DIISMaxEq       ....     5
   Bias factor          DIISBfac        ....   1.050
   Max. coefficient     DIISMaxC        ....  10.000
 Trust-Rad. Augm. Hess. CNVTRAH         .... auto
   Auto Start mean grad. ratio tolernc. ....  1.125000
   Auto Start start iteration           ....    20
   Auto Start num. interpolation iter.  ....    10
   Max. Number of Micro iterations      ....    16
   Max. Number of Macro iterations      .... Maxiter - #DIIS iter
   Number of Davidson start vectors     ....     2
   Converg. threshold I  (grad. norm)   ....   5.000e-05
   Converg. threshold II (energy diff.) ....   1.000e-06
   Grad. Scal. Fac. for Micro threshold ....   0.100
   Minimum threshold for Micro iter.    ....   0.010
   NR start threshold (gradient norm)   ....   0.001
   Initial trust radius                 ....   0.400
   Minimum AH scaling param. (alpha)    ....   1.000
   Maximum AH scaling param. (alpha)    .... 1000.000
   Orbital update algorithm             .... Taylor
   White noise on init. David. guess    .... on
   Maximum white noise                  ....   0.010
   Quad. conv. algorithm                .... NR
 SOSCF                  CNVSOSCF        .... off
 Level Shifting         CNVShift        .... on
   Level shift para.    LevelShift      ....    0.2500
   Turn off err/grad.   ShiftErr        ....    0.0010
 Zerner damping         CNVZerner       .... off
 Static damping         CNVDamp         .... on
   Fraction old density DampFac         ....    0.7000
   Max. Damping (<1)    DampMax         ....    0.9800
   Min. Damping (>=0)   DampMin         ....    0.0000
   Turn off err/grad.   DampErr         ....    0.1000
 Fernandez-Rico         CNVRico         .... off

SCF Procedure:
 Maximum # iterations   MaxIter         ....   125
 SCF integral mode      SCFMode         .... Direct
   Integral package                     .... SHARK and LIBINT hybrid scheme
 Reset frequency        DirectResetFreq ....    20
 Integral Threshold     Thresh          ....  1.000e-10 Eh
 Primitive CutOff       TCut            ....  1.000e-11 Eh

Convergence Tolerance:
 Convergence Check Mode ConvCheckMode   .... Total+1el-Energy
 Convergence forced     ConvForced      .... 0
 Energy Change          TolE            ....  1.000e-06 Eh
 1-El. energy change                    ....  1.000e-03 Eh
 DIIS Error             TolErr          ....  1.000e-06


Diagonalization of the overlap matrix:
Smallest eigenvalue                        ... 8.444e-05
Time for diagonalization                   ...    0.188 sec
Threshold for overlap eigenvalues          ... 1.000e-08
Number of eigenvalues below threshold      ... 0
Time for construction of square roots      ...    0.187 sec
Total time needed                          ...    0.378 sec

Time for model grid setup =    0.352 sec

------------------------------
INITIAL GUESS: MODEL POTENTIAL
------------------------------
Loading Hartree-Fock densities                     ... done
Calculating cut-offs                               ... done
Initializing the effective Hamiltonian             ... done
Setting up the integral package (SHARK)            ... done
Starting the Coulomb interaction                   ... done (   0.3 sec)
Reading the grid                                   ... done
Mapping shells                                     ... done
Starting the XC term evaluation                    ... done (   0.2 sec)
  promolecular density results
     # of electrons  =    318.988633176
     EX              =   -428.249693391
     EC              =    -12.536790979
     EX+EC           =   -440.786484370
Transforming the Hamiltonian                       ... done (   0.2 sec)
Diagonalizing the Hamiltonian                      ... done (   0.2 sec)
Back transforming the eigenvectors                 ... done (   0.1 sec)
Now organizing SCF variables                       ... done
                      ------------------
                      INITIAL GUESS DONE (   1.3 sec)
                      ------------------
-------------------
DFT GRID GENERATION
-------------------

General Integration Accuracy     IntAcc      ... 4.388
Radial Grid Type                 RadialGrid  ... OptM3 with GC (2021)
Angular Grid (max. ang.)         AngularGrid ... 4 (Lebedev-302)
Angular grid pruning method      GridPruning ... 4 (adaptive)
Weight generation scheme         WeightScheme... Becke
Basis function cutoff            BFCut       ... 1.0000e-10
Integration weight cutoff        WCut        ... 1.0000e-14
Angular grids for H and He will be reduced by one unit
Partially contracted basis set               ... off
Rotationally invariant grid construction     ... off

Total number of grid points                  ...   237283
Total number of batches                      ...     3726
Average number of points per batch           ...       63
Average number of grid points per atom       ...     5932
Time for grid setup =    1.789 sec

--------------------
COSX GRID GENERATION
--------------------

GRIDX 1
-------
General Integration Accuracy     IntAcc      ... 3.816
Radial Grid Type                 RadialGrid  ... OptM3 with GC (2021)
Angular Grid (max. ang.)         AngularGrid ... 1 (Lebedev-50)
Angular grid pruning method      GridPruning ... 4 (adaptive)
Weight generation scheme         WeightScheme... Becke
Basis function cutoff            BFCut       ... 1.0000e-10
Integration weight cutoff        WCut        ... 1.0000e-14
Angular grids for H and He will be reduced by one unit
Partially contracted basis set               ... on
Rotationally invariant grid construction     ... off

Total number of grid points                  ...    29192
Total number of batches                      ...      480
Average number of points per batch           ...       60
Average number of grid points per atom       ...      730
UseSFitting                                  ... on

GRIDX 2
-------
General Integration Accuracy     IntAcc      ... 4.020
Radial Grid Type                 RadialGrid  ... OptM3 with GC (2021)
Angular Grid (max. ang.)         AngularGrid ... 2 (Lebedev-110)
Angular grid pruning method      GridPruning ... 4 (adaptive)
Weight generation scheme         WeightScheme... Becke
Basis function cutoff            BFCut       ... 1.0000e-10
Integration weight cutoff        WCut        ... 1.0000e-14
Angular grids for H and He will be reduced by one unit
Partially contracted basis set               ... on
Rotationally invariant grid construction     ... off

Total number of grid points                  ...    64105
Total number of batches                      ...     1022
Average number of points per batch           ...       62
Average number of grid points per atom       ...     1603
UseSFitting                                  ... on

GRIDX 3
-------
General Integration Accuracy     IntAcc      ... 4.338
Radial Grid Type                 RadialGrid  ... OptM3 with GC (2021)
Angular Grid (max. ang.)         AngularGrid ... 3 (Lebedev-194)
Angular grid pruning method      GridPruning ... 4 (adaptive)
Weight generation scheme         WeightScheme... Becke
Basis function cutoff            BFCut       ... 1.0000e-10
Integration weight cutoff        WCut        ... 1.0000e-14
Angular grids for H and He will be reduced by one unit
Partially contracted basis set               ... on
Rotationally invariant grid construction     ... off

Total number of grid points                  ...   147318
Total number of batches                      ...     2323
Average number of points per batch           ...       63
Average number of grid points per atom       ...     3683
UseSFitting                                  ... on

Time for X-Grid setup             =    1.899 sec

--------------
SCF ITERATIONS
--------------
ITER       Energy         Delta-E        Max-DP      RMS-DP      [F,P]     Damp
               ***  Starting incremental Fock matrix formation  ***
  0  -6336.8507002459   0.000000000000 0.05235834  0.00066769  0.2314253 0.7000
  1  -6337.1875250016  -0.336824755688 0.11261780  0.00064372  0.1558885 0.7000
                               ***Turning on DIIS***
  2  -6337.3499003615  -0.162375359833 0.05286560  0.00034656  0.1091087 0.7000
  3  -6337.4398251095  -0.089924748020 0.05468610  0.00059963  0.0772099 0.0000
  4  -6337.6580736669  -0.218248557419 0.07506957  0.00034332  0.0136086 0.0000
  5  -6337.6639787730  -0.005905106135 0.01462002  0.00008854  0.0111728 0.0000
  6  -6337.6653954225  -0.001416649428 0.00364986  0.00004175  0.0044505 0.0000
  7  -6337.6658113282  -0.000415905772 0.00197426  0.00002466  0.0015111 0.0000
  8  -6337.6660042318  -0.000192903521 0.00296024  0.00002105  0.0016271 0.0000
  9  -6337.6661267660  -0.000122534232 0.00166148  0.00001663  0.0011616 0.0000
 10  -6337.6662069284  -0.000080162405 0.00386277  0.00003931  0.0006639 0.0000
               *** Restarting incremental Fock matrix formation ***
                                   *** Resetting DIIS ***
 11  -6337.6662829353  -0.000076006878 0.00128345  0.00001166  0.0008238 0.0000
 12  -6337.6662500901   0.000032845147 0.00041969  0.00000277  0.0027398 0.0000
 13  -6337.6662865930  -0.000036502912 0.00070409  0.00000502  0.0009152 0.0000
 14  -6337.6662924470  -0.000005853936 0.00020191  0.00000248  0.0002643 0.0000
 15  -6337.6662932001  -0.000000753093 0.00014546  0.00000144  0.0001672 0.0000
 16  -6337.6662937208  -0.000000520700 0.00012411  0.00000104  0.0000893 0.0000
 17  -6337.6662940412  -0.000000320398 0.00007006  0.00000078  0.0000822 0.0000
                 **** Energy Check signals convergence ****

               *****************************************************
               *                     SUCCESS                       *
               *           SCF CONVERGED AFTER  18 CYCLES          *
               *****************************************************

Old exchange energy                            =    -85.917834728 Eh
New exchange energy                            =    -85.917802288 Eh
Exchange energy change after final integration =      0.000032440 Eh
Total energy after final integration           =  -6337.666261647 Eh
Final COS-X integration done in                =    21.410 sec

----------------
TOTAL SCF ENERGY
----------------

Total Energy       :        -6337.66626165 Eh         -172456.66651 eV

Components:
Nuclear Repulsion  :         5062.54850186 Eh          137758.94827 eV
Electronic Energy  :       -11400.21476351 Eh         -310215.61477 eV
One Electron Energy:       -18895.46562261 Eh         -514171.75958 eV
Two Electron Energy:         7495.25085910 Eh          203956.14481 eV
Max COSX asymmetry :            0.00000332 Eh               0.00009 eV

Virial components:
Potential Energy   :       -12658.84431456 Eh         -344464.66604 eV
Kinetic Energy     :         6321.17805292 Eh          172007.99954 eV
Virial Ratio       :            2.00260841


DFT components:
N(Alpha)           :      160.999992849617 electrons
N(Beta)            :      159.999988760035 electrons
N(Total)           :      320.999981609652 electrons
E(X)               :     -341.431964867431 Eh       
E(C)               :      -14.720451736015 Eh       
E(XC)              :     -356.152416603446 Eh       
DFET-embed. en.    :        0.000000000000 Eh       

---------------
SCF CONVERGENCE
---------------

  Last Energy change         ...   -4.6058e-08  Tolerance :   1.0000e-06
  Last MAX-Density change    ...    0.0000e+00  Tolerance :   1.0000e-05
  Last RMS-Density change    ...    0.0000e+00  Tolerance :   1.0000e-06
  Last DIIS Error            ...    1.6796e-05  Tolerance :   1.0000e-06

             **** THE GBW FILE WAS UPDATED (input_86.gbw) ****
             **** DENSITY input_86.scfp WAS UPDATED ****
             **** ENERGY FILE WAS UPDATED (input_86.en.tmp) ****
----------------------
UHF SPIN CONTAMINATION
----------------------

Warning: in a DFT calculation there is little theoretical justification to 
         calculate <S**2> as in Hartree-Fock theory. We will do it anyways
         but you should keep in mind that the values have only limited relevance

Expectation value of <S**2>     :     0.765558
Ideal value S*(S+1) for S=0.5   :     0.750000
Deviation                       :     0.015558

             **** THE GBW FILE WAS UPDATED (input_86.gbw) ****
             **** DENSITY input_86.scfp WAS UPDATED ****
----------------
ORBITAL ENERGIES
----------------
                 SPIN UP ORBITALS
  NO   OCC          E(Eh)            E(eV) 
   0   1.0000    -196.674233     -5351.7780 
   1   1.0000     -88.735476     -2414.6151 
   2   1.0000     -88.735386     -2414.6126 
   3   1.0000     -88.730835     -2414.4888 
   4   1.0000     -88.730781     -2414.4873 
   5   1.0000     -88.729046     -2414.4401 
   6   1.0000     -88.728998     -2414.4388 
   7   1.0000     -88.728116     -2414.4148 
   8   1.0000     -88.727956     -2414.4104 
   9   1.0000     -88.639627     -2412.0069 
  10   1.0000     -88.639122     -2411.9931 
  11   1.0000     -88.638759     -2411.9832 
  12   1.0000     -88.638507     -2411.9764 
  13   1.0000     -22.049632      -600.0010 
  14   1.0000     -18.889624      -514.0128 
  15   1.0000     -18.556085      -504.9367 
  16   1.0000     -18.550904      -504.7958 
  17   1.0000     -18.550806      -504.7931 
  18   1.0000     -10.077100      -274.2118 
  19   1.0000     -10.075629      -274.1718 
  20   1.0000     -10.075440      -274.1667 
  21   1.0000     -10.072437      -274.0849 
  22   1.0000     -10.064622      -273.8723 
  23   1.0000     -10.061525      -273.7880 
  24   1.0000     -10.061504      -273.7874 
  25   1.0000     -10.049156      -273.4514 
  26   1.0000     -10.047293      -273.4007 
  27   1.0000     -10.046017      -273.3660 
  28   1.0000     -10.018190      -272.6088 
  29   1.0000     -10.017405      -272.5874 
  30   1.0000     -10.016593      -272.5653 
  31   1.0000     -10.015643      -272.5395 
  32   1.0000      -7.788831      -211.9449 
  33   1.0000      -7.788751      -211.9427 
  34   1.0000      -7.784087      -211.8158 
  35   1.0000      -7.784056      -211.8149 
  36   1.0000      -7.782723      -211.7786 
  37   1.0000      -7.782635      -211.7763 
  38   1.0000      -7.781378      -211.7421 
  39   1.0000      -7.781258      -211.7388 
  40   1.0000      -7.693891      -209.3614 
  41   1.0000      -7.693465      -209.3498 
  42   1.0000      -7.693069      -209.3390 
  43   1.0000      -7.692753      -209.3305 
  44   1.0000      -5.753904      -156.5717 
  45   1.0000      -5.753819      -156.5694 
  46   1.0000      -5.750374      -156.4756 
  47   1.0000      -5.750302      -156.4737 
  48   1.0000      -5.749028      -156.4390 
  49   1.0000      -5.748988      -156.4379 
  50   1.0000      -5.747526      -156.3981 
  51   1.0000      -5.747440      -156.3958 
  52   1.0000      -5.746343      -156.3659 
  53   1.0000      -5.746216      -156.3625 
  54   1.0000      -5.744589      -156.3182 
  55   1.0000      -5.744558      -156.3174 
  56   1.0000      -5.744375      -156.3124 
  57   1.0000      -5.744296      -156.3103 
  58   1.0000      -5.743601      -156.2913 
  59   1.0000      -5.743513      -156.2889 
  60   1.0000      -5.741912      -156.2454 
  61   1.0000      -5.741789      -156.2420 
  62   1.0000      -5.739926      -156.1913 
  63   1.0000      -5.739908      -156.1908 
  64   1.0000      -5.737532      -156.1262 
  65   1.0000      -5.737448      -156.1239 
  66   1.0000      -5.737163      -156.1161 
  67   1.0000      -5.737045      -156.1129 
  68   1.0000      -5.659208      -153.9949 
  69   1.0000      -5.658777      -153.9832 
  70   1.0000      -5.658372      -153.9721 
  71   1.0000      -5.658073      -153.9640 
  72   1.0000      -5.652560      -153.8140 
  73   1.0000      -5.652129      -153.8023 
  74   1.0000      -5.651724      -153.7912 
  75   1.0000      -5.651424      -153.7831 
  76   1.0000      -5.651222      -153.7776 
  77   1.0000      -5.650785      -153.7657 
  78   1.0000      -5.650384      -153.7548 
  79   1.0000      -5.650047      -153.7456 
  80   1.0000      -2.443285       -66.4852 
  81   1.0000      -1.484632       -40.3989 
  82   1.0000      -1.472910       -40.0799 
  83   1.0000      -1.472102       -40.0579 
  84   1.0000      -0.711955       -19.3733 
  85   1.0000      -0.709280       -19.3005 
  86   1.0000      -0.689549       -18.7636 
  87   1.0000      -0.683934       -18.6108 
  88   1.0000      -0.649267       -17.6674 
  89   1.0000      -0.634300       -17.2602 
  90   1.0000      -0.629931       -17.1413 
  91   1.0000      -0.618861       -16.8401 
  92   1.0000      -0.616292       -16.7702 
  93   1.0000      -0.575047       -15.6478 
  94   1.0000      -0.573718       -15.6117 
  95   1.0000      -0.572804       -15.5868 
  96   1.0000      -0.572342       -15.5742 
  97   1.0000      -0.502191       -13.6653 
  98   1.0000      -0.496552       -13.5119 
  99   1.0000      -0.494218       -13.4483 
 100   1.0000      -0.491090       -13.3632 
 101   1.0000      -0.479421       -13.0457 
 102   1.0000      -0.474625       -12.9152 
 103   1.0000      -0.448979       -12.2173 
 104   1.0000      -0.442020       -12.0280 
 105   1.0000      -0.415608       -11.3093 
 106   1.0000      -0.410367       -11.1666 
 107   1.0000      -0.362145        -9.8545 
 108   1.0000      -0.352248        -9.5852 
 109   1.0000      -0.325570        -8.8592 
 110   1.0000      -0.324659        -8.8344 
 111   1.0000      -0.319001        -8.6804 
 112   1.0000      -0.313334        -8.5263 
 113   1.0000      -0.310284        -8.4433 
 114   1.0000      -0.305570        -8.3150 
 115   1.0000      -0.302524        -8.2321 
 116   1.0000      -0.282215        -7.6795 
 117   1.0000      -0.272364        -7.4114 
 118   1.0000      -0.258812        -7.0426 
 119   1.0000      -0.254940        -6.9373 
 120   1.0000      -0.253601        -6.9008 
 121   1.0000      -0.249909        -6.8004 
 122   1.0000      -0.230250        -6.2654 
 123   1.0000      -0.226570        -6.1653 
 124   1.0000      -0.218580        -5.9479 
 125   1.0000      -0.217419        -5.9163 
 126   1.0000      -0.215447        -5.8626 
 127   1.0000      -0.213497        -5.8095 
 128   1.0000      -0.208621        -5.6769 
 129   1.0000      -0.192139        -5.2284 
 130   1.0000      -0.190478        -5.1832 
 131   1.0000      -0.183942        -5.0053 
 132   1.0000      -0.175201        -4.7675 
 133   1.0000      -0.174125        -4.7382 
 134   1.0000      -0.158816        -4.3216 
 135   1.0000      -0.150805        -4.1036 
 136   1.0000      -0.144815        -3.9406 
 137   1.0000      -0.135306        -3.6819 
 138   1.0000      -0.132057        -3.5935 
 139   1.0000      -0.131242        -3.5713 
 140   1.0000      -0.124176        -3.3790 
 141   1.0000      -0.120106        -3.2683 
 142   1.0000      -0.112920        -3.0727 
 143   1.0000      -0.109041        -2.9672 
 144   1.0000      -0.099426        -2.7055 
 145   1.0000      -0.097395        -2.6502 
 146   1.0000      -0.096997        -2.6394 
 147   1.0000      -0.092974        -2.5300 
 148   1.0000      -0.073883        -2.0105 
 149   1.0000      -0.067677        -1.8416 
 150   1.0000      -0.066141        -1.7998 
 151   1.0000      -0.051589        -1.4038 
 152   1.0000      -0.044954        -1.2233 
 153   1.0000      -0.036993        -1.0066 
 154   1.0000      -0.036481        -0.9927 
 155   1.0000      -0.029916        -0.8140 
 156   1.0000      -0.024400        -0.6639 
 157   1.0000      -0.018460        -0.5023 
 158   1.0000      -0.014618        -0.3978 
 159   1.0000       0.021054         0.5729 
 160   1.0000       0.041859         1.1390 
 161   0.0000       0.134735         3.6663 
 162   0.0000       0.137098         3.7306 
 163   0.0000       0.161378         4.3913 
 164   0.0000       0.163287         4.4433 
 165   0.0000       0.163889         4.4596 
 166   0.0000       0.171118         4.6563 
 167   0.0000       0.171949         4.6790 
 168   0.0000       0.173519         4.7217 
 169   0.0000       0.174891         4.7590 
 170   0.0000       0.175949         4.7878 
 171   0.0000       0.178289         4.8515 
 172   0.0000       0.188053         5.1172 
 173   0.0000       0.189926         5.1681 
 174   0.0000       0.193944         5.2775 
 175   0.0000       0.195074         5.3082 
 176   0.0000       0.199245         5.4217 
 177   0.0000       0.202206         5.5023 
 178   0.0000       0.204106         5.5540 
 179   0.0000       0.206769         5.6265 
 180   0.0000       0.214878         5.8471 
 181   0.0000       0.217110         5.9079 
 182   0.0000       0.217723         5.9245 
 183   0.0000       0.219259         5.9663 
 184   0.0000       0.225725         6.1423 
 185   0.0000       0.228655         6.2220 
 186   0.0000       0.232701         6.3321 
 187   0.0000       0.234941         6.3931 
 188   0.0000       0.237951         6.4750 
 189   0.0000       0.240348         6.5402 
 190   0.0000       0.242462         6.5977 
 191   0.0000       0.247842         6.7441 
 192   0.0000       0.249563         6.7910 
 193   0.0000       0.255668         6.9571 
 194   0.0000       0.261979         7.1288 
 195   0.0000       0.267834         7.2881 
 196   0.0000       0.270573         7.3627 
 197   0.0000       0.273797         7.4504 
 198   0.0000       0.274366         7.4659 
 199   0.0000       0.276742         7.5305 
 200   0.0000       0.286625         7.7995 
 201   0.0000       0.288308         7.8452 
 202   0.0000       0.301906         8.2153 
 203   0.0000       0.309462         8.4209 
 204   0.0000       0.311586         8.4787 
 205   0.0000       0.325034         8.8446 
 206   0.0000       0.326087         8.8733 
 207   0.0000       0.331732         9.0269 
 208   0.0000       0.334802         9.1104 
 209   0.0000       0.342021         9.3069 
 210   0.0000       0.343146         9.3375 
 211   0.0000       0.347103         9.4451 
 212   0.0000       0.357746         9.7348 
 213   0.0000       0.360100         9.7988 
 214   0.0000       0.363862         9.9012 
 215   0.0000       0.367840        10.0094 
 216   0.0000       0.373562        10.1651 
 217   0.0000       0.376931        10.2568 
 218   0.0000       0.377573        10.2743 
 219   0.0000       0.382962        10.4209 
 220   0.0000       0.390066        10.6142 
 221   0.0000       0.390480        10.6255 
 222   0.0000       0.395340        10.7577 
 223   0.0000       0.396790        10.7972 
 224   0.0000       0.401157        10.9160 
 225   0.0000       0.402867        10.9626 
 226   0.0000       0.403543        10.9810 
 227   0.0000       0.409190        11.1346 
 228   0.0000       0.413370        11.2484 
 229   0.0000       0.419659        11.4195 
 230   0.0000       0.420808        11.4508 
 231   0.0000       0.427096        11.6219 
 232   0.0000       0.428574        11.6621 
 233   0.0000       0.433431        11.7943 
 234   0.0000       0.438988        11.9455 
 235   0.0000       0.442156        12.0317 
 236   0.0000       0.446510        12.1502 
 237   0.0000       0.454306        12.3623 
 238   0.0000       0.460493        12.5307 
 239   0.0000       0.461395        12.5552 
 240   0.0000       0.466035        12.6815 
 241   0.0000       0.472725        12.8635 
 242   0.0000       0.473242        12.8776 
 243   0.0000       0.474139        12.9020 
 244   0.0000       0.474453        12.9105 
 245   0.0000       0.481033        13.0896 
 246   0.0000       0.483579        13.1589 
 247   0.0000       0.484839        13.1931 
 248   0.0000       0.485225        13.2036 
 249   0.0000       0.493720        13.4348 
 250   0.0000       0.498125        13.5547 
 251   0.0000       0.504249        13.7213 
 252   0.0000       0.505545        13.7566 
 253   0.0000       0.508705        13.8426 
 254   0.0000       0.512127        13.9357 
 255   0.0000       0.514946        14.0124 
 256   0.0000       0.517076        14.0703 
 257   0.0000       0.520916        14.1748 
 258   0.0000       0.523207        14.2372 
 259   0.0000       0.524004        14.2589 
 260   0.0000       0.525742        14.3062 
 261   0.0000       0.527303        14.3487 
 262   0.0000       0.528996        14.3947 
 263   0.0000       0.529857        14.4181 
 264   0.0000       0.532044        14.4777 
 265   0.0000       0.533830        14.5263 
 266   0.0000       0.537959        14.6386 
 267   0.0000       0.541670        14.7396 
 268   0.0000       0.547519        14.8988 
 269   0.0000       0.547781        14.9059 
 270   0.0000       0.552724        15.0404 
 271   0.0000       0.553397        15.0587 
 272   0.0000       0.557085        15.1591 
 273   0.0000       0.562846        15.3158 
 274   0.0000       0.564367        15.3572 
 275   0.0000       0.569018        15.4838 
 276   0.0000       0.570937        15.5360 
 277   0.0000       0.574875        15.6431 
 278   0.0000       0.582551        15.8520 
 279   0.0000       0.583129        15.8678 
 280   0.0000       0.585448        15.9309 
 281   0.0000       0.588201        16.0058 
 282   0.0000       0.595115        16.1939 
 283   0.0000       0.595799        16.2125 
 284   0.0000       0.598966        16.2987 
 285   0.0000       0.603108        16.4114 
 286   0.0000       0.611076        16.6282 
 287   0.0000       0.612522        16.6676 
 288   0.0000       0.616455        16.7746 
 289   0.0000       0.618701        16.8357 
 290   0.0000       0.622841        16.9484 
 291   0.0000       0.623548        16.9676 
 292   0.0000       0.628689        17.1075 
 293   0.0000       0.633168        17.2294 
 294   0.0000       0.634972        17.2785 
 295   0.0000       0.639515        17.4021 
 296   0.0000       0.640269        17.4226 
 297   0.0000       0.646675        17.5969 
 298   0.0000       0.654321        17.8050 
 299   0.0000       0.661752        18.0072 
 300   0.0000       0.670948        18.2574 
 301   0.0000       0.681210        18.5367 
 302   0.0000       0.685930        18.6651 
 303   0.0000       0.698744        19.0138 
 304   0.0000       0.710259        19.3271 
 305   0.0000       0.713501        19.4153 
 306   0.0000       0.718783        19.5591 
 307   0.0000       0.734364        19.9831 
 308   0.0000       0.736268        20.0349 
 309   0.0000       0.745518        20.2866 
 310   0.0000       0.754312        20.5259 
 311   0.0000       0.756130        20.5753 
 312   0.0000       0.768067        20.9002 
 313   0.0000       0.770033        20.9537 
 314   0.0000       0.775752        21.1093 
 315   0.0000       0.783335        21.3156 
 316   0.0000       0.788042        21.4437 
 317   0.0000       0.796686        21.6789 
 318   0.0000       0.798568        21.7302 
 319   0.0000       0.814692        22.1689 
 320   0.0000       0.821332        22.3496 
 321   0.0000       0.823315        22.4035 
 322   0.0000       0.827963        22.5300 
 323   0.0000       0.829776        22.5793 
 324   0.0000       0.845348        23.0031 
 325   0.0000       0.848773        23.0963 
 326   0.0000       0.856427        23.3046 
 327   0.0000       0.858429        23.3591 
 328   0.0000       0.863255        23.4904 
 329   0.0000       0.868902        23.6440 
 330   0.0000       0.870255        23.6808 
 331   0.0000       0.874452        23.7950 
 332   0.0000       0.876061        23.8388 
 333   0.0000       0.879452        23.9311 
 334   0.0000       0.886345        24.1187 
 335   0.0000       0.891149        24.2494 
 336   0.0000       0.896608        24.3979 
 337   0.0000       0.904127        24.6026 
 338   0.0000       0.907329        24.6897 
 339   0.0000       0.914581        24.8870 
 340   0.0000       0.925125        25.1739 
 341   0.0000       0.928804        25.2740 
 342   0.0000       0.934207        25.4211 
 343   0.0000       0.940008        25.5789 
 344   0.0000       0.942148        25.6372 
 345   0.0000       0.943491        25.6737 
 346   0.0000       0.948927        25.8216 
 347   0.0000       0.953074        25.9345 
 348   0.0000       0.963217        26.2105 
 349   0.0000       0.968354        26.3503 
 350   0.0000       0.968621        26.3575 
 351   0.0000       0.972306        26.4578 
 352   0.0000       0.990452        26.9516 
 353   0.0000       0.994190        27.0533 
 354   0.0000       1.007028        27.4026 
 355   0.0000       1.009018        27.4568 
 356   0.0000       1.013061        27.5668 
 357   0.0000       1.015059        27.6212 
 358   0.0000       1.017091        27.6764 
 359   0.0000       1.021554        27.7979 
 360   0.0000       1.030569        28.0432 
 361   0.0000       1.036472        28.2038 
 362   0.0000       1.042717        28.3738 
 363   0.0000       1.049502        28.5584 
 364   0.0000       1.060083        28.8463 
 365   0.0000       1.065907        29.0048 
 366   0.0000       1.066509        29.0212 
 367   0.0000       1.072397        29.1814 
 368   0.0000       1.073393        29.2085 
 369   0.0000       1.080383        29.3987 
 370   0.0000       1.086202        29.5571 
 371   0.0000       1.094675        29.7876 
 372   0.0000       1.096743        29.8439 
 373   0.0000       1.102710        30.0063 
 374   0.0000       1.103793        30.0357 
 375   0.0000       1.107484        30.1362 
 376   0.0000       1.111558        30.2470 
 377   0.0000       1.118246        30.4290 
 378   0.0000       1.133432        30.8423 
 379   0.0000       1.141490        31.0615 
 380   0.0000       1.142641        31.0928 
 381   0.0000       1.158051        31.5122 
 382   0.0000       1.159010        31.5383 
 383   0.0000       1.160785        31.5866 
 384   0.0000       1.166139        31.7323 
 385   0.0000       1.199197        32.6318 
 386   0.0000       1.208931        32.8967 
 387   0.0000       1.228790        33.4371 
 388   0.0000       1.236169        33.6379 
 389   0.0000       1.236346        33.6427 
 390   0.0000       1.245908        33.9029 
 391   0.0000       1.253289        34.1037 
 392   0.0000       1.276174        34.7264 
 393   0.0000       1.286084        34.9961 
 394   0.0000       1.294396        35.2223 
 395   0.0000       1.298813        35.3425 
 396   0.0000       1.305320        35.5196 
 397   0.0000       1.322893        35.9978 
 398   0.0000       1.330749        36.2115 
 399   0.0000       1.336213        36.3602 
 400   0.0000       1.344289        36.5800 
 401   0.0000       1.359664        36.9983 
 402   0.0000       1.369649        37.2700 
 403   0.0000       1.392367        37.8882 
 404   0.0000       1.401774        38.1442 
 405   0.0000       1.417001        38.5586 
 406   0.0000       1.424421        38.7605 
 407   0.0000       1.427310        38.8391 
 408   0.0000       1.428992        38.8849 
 409   0.0000       1.429822        38.9074 
 410   0.0000       1.437192        39.1080 
 411   0.0000       1.445477        39.3334 
 412   0.0000       1.449118        39.4325 
 413   0.0000       1.449929        39.4546 
 414   0.0000       1.485426        40.4205 
 415   0.0000       1.493785        40.6480 
 416   0.0000       1.495098        40.6837 
 417   0.0000       1.499020        40.7904 
 418   0.0000       1.508774        41.0558 
 419   0.0000       1.510242        41.0958 
[...]
Total number of batches                      ...      302
Average number of points per batch           ...       58
Average number of grid points per atom       ...      444

Memory available               ... 821.8 MB
Memory needed per perturbation ...  41.3 MB
Perturbations treated per batch... 3
Number of batches              ... 1
     CP-SCF ITERATION   0:   4.5228e-02 (   4.8 sec   0/  3 done)
     CP-SCF ITERATION   1:   1.9700e-03 (   4.9 sec   0/  3 done)
     CP-SCF ITERATION   2:   1.7898e-04 (   4.9 sec   3/  3 done)
                    *** THE CP-SCF HAS CONVERGED ***

Forming final perturbed densities           ... done
Transforming perturbed density to AO basis  ... done

 Raw HFC matrix (all values in MHz): 
 -----------------------------------
                 0.1660              -0.0135              -0.0375
                -0.0134              -0.0865               0.0028
                -0.0380               0.0029              -0.0832

 A(FC)          -0.0014              -0.0014              -0.0014
 A(SD)          -0.0859              -0.0889               0.1748
 A(ORB+DIA)      0.0005               0.0012              -0.0011    A(PC) =   0.0002
 A(ORB)          0.0005               0.0012              -0.0012    A(PC) =   0.0002
 A(DIA)         -0.0000              -0.0000               0.0000    A(PC) =  -0.0000
             ----------           ----------           ----------
 A(Tot)         -0.0869              -0.0891               0.1723    A(iso)=   -0.0012
 Orientation: 
  X           0.1054594           -0.1138874           -0.9878805
  Y           0.9196961            0.3889915            0.0533358
  Z           0.3782028           -0.9141747            0.1457646

Notes:  (1) The A matrix conforms to the "SAI" spin Hamiltonian convention.
        (2) Tensor is right-handed.

 Raw EFG matrix (all values in a.u.**-3):
 -----------------------------------
             0.0072      -0.1548      -0.0764
            -0.1548       0.0751       0.0926
            -0.0764       0.0926      -0.0822

 V(El)       0.4632       0.7546      -1.2178
 V(Nuc)     -0.5804      -0.8812       1.4616
         ----------   ----------   ----------
 V(Tot)     -0.1172      -0.1266       0.2438 
 Orientation: 
  X       0.7380722   -0.3284841   -0.5893621
  Y       0.6605947    0.1739947    0.7303016
  Z      -0.1373466   -0.9283448    0.3454155

Note: Tensor is right-handed


 Quadrupole tensor eigenvalues (in MHz;Q= 0.0029 I=  1.0)
  e**2qQ            =     0.163695 MHz 
  e**2qQ/(4I*(2I-1))=     0.040924 MHz 
  eta               =     0.038743
  NOTE: the diagonal representation of the SH term I*Q*I = e**2qQ/(4I(2I-1))*[-(1-eta),-(1+eta),2]

 RHO(0)=      0.423237618 a.u.**-3

 -----------------------------------------------------------
 Nucleus  39H : A:ISTP=    1 I=  0.5 P=533.5514 MHz/au**3
                Q:ISTP=    2 I=  1.0 Q=  0.0029 barn     
 -----------------------------------------------------------
 Solving for nuclear perturbation:
Forming RHS of the CP-SCF equations         ... 
Calc. nucleus orbit integrals (SHARK)       ... done

------------------------------------------------------------------------------
                           ORCA CP-SCF CALCULATION
------------------------------------------------------------------------------

Input orbitals are from        ... input_86.gbw
Input Perturbation             ... input_86.pin.tmp
Wavefunction output            ... input_86.pout.tmp
Perturbation mode              ... Imaginary perturbation
Solver                         ... POPLE
Max. number of iterations      ... 64
Convergence tolerance          ... 1.000e-03
Integral handling              ... Direct
DFT GridXC                     ... 1
COSX GridX                     ... 1
COSX IntAccX                   ... 3.067
COSX Algorithm                 ... Auto
Number of perturbations        ... 3
Number of operators            ... 2
Orbital ranges used for CP-SCF:
 Operator 0:  Orbitals   0...160  to 161...680
 Operator 1:  Orbitals   0...159  to 160...680
Variables per perturbation     ... 167080
DFT calculation                         ... on
XC functional terms                     ... off
Hybrid DFT                              ... on
   Exchange mixing (SCF)                ...  0.200
   Exchange mixing (CP-SCF)             ...  0.200
   GGA exch. scaling(SCF)               ...  0.720
   GGA exch. scaling (CP-SCF)           ...  0.720
   GGA corr. scaling (SCF)              ...  0.810
   GGA corr. scaling (CP-SCF)           ...  0.810

CP-SCF GRID
-----------

General Integration Accuracy     IntAcc      ... 3.467
Radial Grid Type                 RadialGrid  ... OptM3 with GC (2021)
Angular Grid (max. ang.)         AngularGrid ... 1 (Lebedev-50)
Angular grid pruning method      GridPruning ... 4 (adaptive)
Weight generation scheme         WeightScheme... Becke
Basis function cutoff            BFCut       ... 1.0000e-10
Integration weight cutoff        WCut        ... 1.0000e-14
Angular grids for H and He will be reduced by one unit
Partially contracted basis set               ... off
Rotationally invariant grid construction     ... off

Total number of grid points                  ...    39349
Total number of batches                      ...      634
Average number of points per batch           ...       62
Average number of grid points per atom       ...      984

CP-SCF GRIDX
------------

General Integration Accuracy     IntAcc      ... 3.067
Radial Grid Type                 RadialGrid  ... OptM3 with GC (2021)
Angular Grid (max. ang.)         AngularGrid ... 1 (Lebedev-50)
Angular grid pruning method      GridPruning ... 4 (adaptive)
Weight generation scheme         WeightScheme... Becke
Basis function cutoff            BFCut       ... 1.0000e-10
Integration weight cutoff        WCut        ... 1.0000e-14
Angular grids for H and He will be reduced by one unit
Partially contracted basis set               ... on
Rotationally invariant grid construction     ... off

Total number of grid points                  ...    17772
Total number of batches                      ...      302
Average number of points per batch           ...       58
Average number of grid points per atom       ...      444

Memory available               ... 819.7 MB
Memory needed per perturbation ...  41.3 MB
Perturbations treated per batch... 3
Number of batches              ... 1
     CP-SCF ITERATION   0:   5.0844e-02 (   4.8 sec   0/  3 done)
     CP-SCF ITERATION   1:   2.2618e-03 (   4.9 sec   0/  3 done)
     CP-SCF ITERATION   2:   2.1685e-04 (   4.9 sec   3/  3 done)
                    *** THE CP-SCF HAS CONVERGED ***

Forming final perturbed densities           ... done
Transforming perturbed density to AO basis  ... done

 Raw HFC matrix (all values in MHz): 
 -----------------------------------
                 0.2548               0.0244              -0.0830
                 0.0245              -0.1493              -0.0055
                -0.0833              -0.0056              -0.1286

 A(FC)          -0.0080              -0.0080              -0.0080
 A(SD)          -0.1396              -0.1439               0.2834
 A(ORB+DIA)      0.0018               0.0011              -0.0018    A(PC) =   0.0003
 A(ORB)          0.0018               0.0011              -0.0019    A(PC) =   0.0004
 A(DIA)         -0.0000              -0.0001               0.0000    A(PC) =  -0.0000
             ----------           ----------           ----------
 A(Tot)         -0.1458              -0.1508               0.2736    A(iso)=   -0.0077
 Orientation: 
  X           0.2068591            0.0412344            0.9775014
  Y          -0.0809260           -0.9949666            0.0590967
  Z           0.9750181           -0.0913299           -0.2024809

Notes:  (1) The A matrix conforms to the "SAI" spin Hamiltonian convention.
        (2) Tensor is right-handed.

 Raw EFG matrix (all values in a.u.**-3):
 -----------------------------------
             0.0934      -0.0338       0.1748
            -0.0338      -0.1109      -0.0236
             0.1748      -0.0236       0.0176

 V(El)       0.7452       0.2473      -0.9925
 V(Nuc)     -0.8601      -0.3716       1.2317
         ----------   ----------   ----------
 V(Tot)     -0.1148      -0.1243       0.2392 
 Orientation: 
  X      -0.1077522   -0.6243518    0.7736759
  Y       0.9444002   -0.3074395   -0.1165724
  Z       0.3106407    0.7180987    0.6227652

Note: Tensor is right-handed


 Quadrupole tensor eigenvalues (in MHz;Q= 0.0029 I=  1.0)
  e**2qQ            =     0.160611 MHz 
  e**2qQ/(4I*(2I-1))=     0.040153 MHz 
  eta               =     0.039712
  NOTE: the diagonal representation of the SH term I*Q*I = e**2qQ/(4I(2I-1))*[-(1-eta),-(1+eta),2]

 RHO(0)=      0.417307534 a.u.**-3

 -----------------------------------------------------------
 Nucleus   0V : A:ISTP=   51 I=  3.5 P=140.5173 MHz/au**3
                Q:ISTP=   51 I=  3.5 Q= -0.0430 barn     
 -----------------------------------------------------------
 Solving for nuclear perturbation:
Forming RHS of the CP-SCF equations         ... 
Calc. nucleus orbit integrals (SHARK)       ... done

------------------------------------------------------------------------------
                           ORCA CP-SCF CALCULATION
------------------------------------------------------------------------------

Input orbitals are from        ... input_86.gbw
Input Perturbation             ... input_86.pin.tmp
Wavefunction output            ... input_86.pout.tmp
Perturbation mode              ... Imaginary perturbation
Solver                         ... POPLE
Max. number of iterations      ... 64
Convergence tolerance          ... 1.000e-03
Integral handling              ... Direct
DFT GridXC                     ... 1
COSX GridX                     ... 1
COSX IntAccX                   ... 3.067
COSX Algorithm                 ... Auto
Number of perturbations        ... 3
Number of operators            ... 2
Orbital ranges used for CP-SCF:
 Operator 0:  Orbitals   0...160  to 161...680
 Operator 1:  Orbitals   0...159  to 160...680
Variables per perturbation     ... 167080
DFT calculation                         ... on
XC functional terms                     ... off
Hybrid DFT                              ... on
   Exchange mixing (SCF)                ...  0.200
   Exchange mixing (CP-SCF)             ...  0.200
   GGA exch. scaling(SCF)               ...  0.720
   GGA exch. scaling (CP-SCF)           ...  0.720
   GGA corr. scaling (SCF)              ...  0.810
   GGA corr. scaling (CP-SCF)           ...  0.810

CP-SCF GRID
-----------

General Integration Accuracy     IntAcc      ... 3.467
Radial Grid Type                 RadialGrid  ... OptM3 with GC (2021)
Angular Grid (max. ang.)         AngularGrid ... 1 (Lebedev-50)
Angular grid pruning method      GridPruning ... 4 (adaptive)
Weight generation scheme         WeightScheme... Becke
Basis function cutoff            BFCut       ... 1.0000e-10
Integration weight cutoff        WCut        ... 1.0000e-14
Angular grids for H and He will be reduced by one unit
Partially contracted basis set               ... off
Rotationally invariant grid construction     ... off

Total number of grid points                  ...    39349
Total number of batches                      ...      634
Average number of points per batch           ...       62
Average number of grid points per atom       ...      984

CP-SCF GRIDX
------------

General Integration Accuracy     IntAcc      ... 3.067
Radial Grid Type                 RadialGrid  ... OptM3 with GC (2021)
Angular Grid (max. ang.)         AngularGrid ... 1 (Lebedev-50)
Angular grid pruning method      GridPruning ... 4 (adaptive)
Weight generation scheme         WeightScheme... Becke
Basis function cutoff            BFCut       ... 1.0000e-10
Integration weight cutoff        WCut        ... 1.0000e-14
Angular grids for H and He will be reduced by one unit
Partially contracted basis set               ... on
Rotationally invariant grid construction     ... off

Total number of grid points                  ...    17772
Total number of batches                      ...      302
Average number of points per batch           ...       58
Average number of grid points per atom       ...      444

Memory available               ... 817.6 MB
Memory needed per perturbation ...  41.3 MB
Perturbations treated per batch... 3
Number of batches              ... 1
     CP-SCF ITERATION   0:   1.2082e+01 (   5.1 sec   0/  3 done)
     CP-SCF ITERATION   1:   2.0070e+00 (   4.9 sec   0/  3 done)
     CP-SCF ITERATION   2:   3.3797e-01 (   4.9 sec   0/  3 done)
     CP-SCF ITERATION   3:   3.9972e-02 (   4.9 sec   0/  3 done)
     CP-SCF ITERATION   4:   8.1474e-03 (   4.9 sec   0/  3 done)
     CP-SCF ITERATION   5:   2.1542e-03 (   5.0 sec   1/  3 done)
     CP-SCF ITERATION   6:   3.5441e-04 (   4.0 sec   3/  3 done)
                    *** THE CP-SCF HAS CONVERGED ***

Forming final perturbed densities           ... done
Transforming perturbed density to AO basis  ... done

 Raw HFC matrix (all values in MHz): 
 -----------------------------------
               -89.2850               7.2082             -12.1216
                 6.6160            -177.0084             139.7308
               -11.1928             139.9318            -294.9974

 A(FC)        -175.2017            -175.2017            -175.2017
 A(SD)          98.0031              93.9325            -191.9356
 A(ORB+DIA)     -6.9352              -7.5067             -21.2440    A(PC) = -11.8953
 A(ORB)         -6.9348              -7.5072             -21.2438    A(PC) = -11.8953
 A(DIA)         -0.0004               0.0005              -0.0002    A(PC) =  -0.0000
             ----------           ----------           ----------
 A(Tot)        -84.1338             -88.7759            -388.3812    A(iso)= -187.0970
 Orientation: 
  X          -0.1616699            0.9857227           -0.0470495
  Y           0.8182142            0.1605461            0.5520422
  Z           0.5517141            0.0507521           -0.8324877

Notes:  (1) The A matrix conforms to the "SAI" spin Hamiltonian convention.
        (2) Tensor is right-handed.

 Raw EFG matrix (all values in a.u.**-3):
 -----------------------------------
            -0.1776      -0.0363       0.0324
            -0.0363       0.0179      -0.1120
             0.0324      -0.1120       0.1597

 V(El)       0.1873      -0.4742       0.2869
 V(Nuc)     -0.2293       0.2896      -0.0603
         ----------   ----------   ----------
 V(Tot)     -0.0420      -0.1846       0.2266 
 Orientation: 
  X       0.1116897    0.9872878    0.1130851
  Y      -0.8610535    0.1529576   -0.4849649
  Z      -0.4960971   -0.0432068    0.8671913

Note: Tensor is right-handed


 Quadrupole tensor eigenvalues (in MHz;Q=-0.0430 I=  3.5)
  e**2qQ            =    -2.289471 MHz 
  e**2qQ/(4I*(2I-1))=    -0.027256 MHz 
  eta               =     0.629498
  NOTE: the diagonal representation of the SH term I*Q*I = e**2qQ/(4I(2I-1))*[-(1-eta),-(1+eta),2]

 RHO(0)=   8115.204007415 a.u.**-3


--------------------------------------------------------------------------------
----------------------------------------------------------------------------
                           ORCA EULER ANGLE PROGRAM
----------------------------------------------------------------------------

Only g-tensor available        -->  using g-tensor as reference tensor

Reference tensor               ...  g

g-tensor ordering              ...  |g_min> --> |gx>
                                    |g_mid> --> |gy>
                                    |g_max> --> |gz>

A- and EFG-tensor ordering     ...  the axes |Ax>, |Qx>, |Ay>, etc. are assigned
                                    such that the Euler rotation is minimal. You
                                    can find the respective eigenvalues as Ax,
                                    EFGx, Ay, etc. in the tables below.
                                    The relation of |Ax>, |Ay>,  etc. to Amin, Amid, etc.
                                    (as printed in the ORCA EPR/NMR CALCULATION Output)
                                    is obtained in the detailed printout.

Euler rotation around          ...  z - y - z
   First rotation              -->  by alpha around z
   Second rotation             -->  by beta around y'
   Third rotation              -->  by gamma around z''
   Positive / Negative angle   -->  clockwise / counterclockwise rotation

Plot EFG-tensors                    (-)
Plot HFC-tensors                    (-)
Detailed Printout                   (-)

-------------------------------------------------------------------------
          Euler rotation of hyperfine tensor to g-tensor
-------------------------------------------------------------------------

-------------------------------------------------------------------
 Atom  |   Alpha    Beta    Gamma   |   Ax       Ay       Az 
       |          [degrees]         |           [MHz]         
-------------------------------------------------------------------
 25H      150.4      9.1   -124.3      -0.13     0.25    -0.13
 26H      165.1     33.3   -147.3      -0.08     0.16    -0.08
 27H      -48.3      5.6     72.5      -0.07     0.13    -0.07
 28H      -68.9      4.5     83.5      -0.07     0.14    -0.07
 29H     -142.6     27.8    166.1      -0.08     0.16    -0.08
 30H      -55.3     15.6     80.9      -0.13     0.25    -0.13
 34H       10.7     20.6     -6.6      -0.15     0.27    -0.15
 35H       60.2      9.3    -62.2      -0.09     0.17    -0.09
 36H     -148.6     10.7    141.5      -0.07     0.14    -0.07
 37H     -148.1     11.8    151.3      -0.07     0.15    -0.07
 38H     -117.7     22.6    115.3      -0.09     0.17    -0.09
 39H     -147.4     31.3    153.6      -0.15     0.27    -0.15
  0V     -106.4      3.5     99.6    -388.38   -88.78   -84.13
-------------------------------------------------------------------


-------------------------------------------------------------------------------
    Euler rotation of Electric Field Gradient (EFG) tensor to g-tensor
-------------------------------------------------------------------------------

-------------------------------------------------------------------
 Atom  |   Alpha    Beta    Gamma  |   EFGx     EFGy     EFGz
       |          [degrees]        |         [a.u.**-3]       
-------------------------------------------------------------------
 25H     -176.9     33.4    137.8     -0.14     0.28    -0.14
 26H     -139.3     44.5    114.6     -0.14    -0.15     0.28
 27H     -127.5      4.2    108.3      0.28    -0.15    -0.14
 28H     -145.0      4.0    108.6     -0.14     0.28    -0.14
 29H       39.4     36.4    -64.7     -0.14    -0.15     0.28
 30H       -5.5     26.7    -35.0     -0.14     0.28    -0.14
 34H       20.5      8.9     22.8      0.24    -0.12    -0.11
 35H      -65.0     34.5     80.9     -0.13    -0.12     0.24
 36H      -82.3      7.2    120.5      0.28    -0.15    -0.13
 37H     -157.8      7.0    121.4      0.28    -0.14    -0.13
 38H      137.2     25.1   -118.8     -0.13    -0.12     0.24
 39H     -106.6     17.9    150.8      0.24    -0.12    -0.11
  0V     -122.7      8.1    120.4      0.23    -0.18    -0.04
-------------------------------------------------------------------


Maximum memory used throughout the entire EPRNMR-calculation: 305.6 MB

Timings for individual modules:

Sum of individual times         ...     3708.555 sec (=  61.809 min)
GTO integral calculation        ...        1.517 sec (=   0.025 min)   0.0 %
Spin-Orbit-Coupling Matrices    ...       10.588 sec (=   0.176 min)   0.3 %
SCF iterations                  ...      190.561 sec (=   3.176 min)   5.1 %
EPR/NMR calculation             ...     3505.889 sec (=  58.431 min)  94.5 %
                             ****ORCA TERMINATED NORMALLY****
TOTAL RUN TIME: 0 days 1 hours 1 minutes 49 seconds 947 msec
