
                                 *****************
                                 * O   R   C   A *
                                 *****************

                                            #,                                       
                                            ###                                      
                                            ####                                     
                                            #####                                    
                                            ######                                   
                                           ########,                                 
                                     ,,################,,,,,                         
                               ,,#################################,,                 
                          ,,##########################################,,             
                       ,#########################################, ''#####,          
                    ,#############################################,,   '####,        
                  ,##################################################,,,,####,       
                ,###########''''           ''''###############################       
              ,#####''   ,,,,##########,,,,          '''####'''          '####       
            ,##' ,,,,###########################,,,                        '##       
           ' ,,###''''                  '''############,,,                           
         ,,##''                                '''############,,,,        ,,,,,,###''
      ,#''                                            '''#######################'''  
     '                                                          ''''####''''         
             ,#######,   #######,   ,#######,      ##                                
            ,#'     '#,  ##    ##  ,#'     '#,    #''#        ######   ,####,        
            ##       ##  ##   ,#'  ##            #'  '#       #        #'  '#        
            ##       ##  #######   ##           ,######,      #####,   #    #        
            '#,     ,#'  ##    ##  '#,     ,#' ,#      #,         ##   #,  ,#        
             '#######'   ##     ##  '#######'  #'      '#     #####' # '####'        



                  #######################################################
                  #                        -***-                        #
                  #          Department of theory and spectroscopy      #
                  #    Directorship and core code : Frank Neese         #
                  #        Max Planck Institute fuer Kohlenforschung    #
                  #                Kaiser Wilhelm Platz 1               #
                  #                 D-45470 Muelheim/Ruhr               #
                  #                      Germany                        #
                  #                                                     #
                  #                  All rights reserved                #
                  #                        -***-                        #
                  #######################################################


                         Program Version 5.0.4 -  RELEASE  -


 With contributions from (in alphabetic order):
   Daniel Aravena         : Magnetic Suceptibility
   Michael Atanasov       : Ab Initio Ligand Field Theory (pilot matlab implementation)
   Alexander A. Auer      : GIAO ZORA, VPT2 properties, NMR spectrum
   Ute Becker             : Parallelization
   Giovanni Bistoni       : ED, misc. LED, open-shell LED, HFLD
   Martin Brehm           : Molecular dynamics
   Dmytro Bykov           : SCF Hessian
   Vijay G. Chilkuri      : MRCI spin determinant printing, contributions to CSF-ICE
   Dipayan Datta          : RHF DLPNO-CCSD density
   Achintya Kumar Dutta   : EOM-CC, STEOM-CC
   Dmitry Ganyushin       : Spin-Orbit,Spin-Spin,Magnetic field MRCI
   Miquel Garcia          : C-PCM and meta-GGA Hessian, CC/C-PCM, Gaussian charge scheme
   Yang Guo               : DLPNO-NEVPT2, F12-NEVPT2, CIM, IAO-localization
   Andreas Hansen         : Spin unrestricted coupled pair/coupled cluster methods
   Benjamin Helmich-Paris : MC-RPA, TRAH-SCF, COSX integrals
   Lee Huntington         : MR-EOM, pCC
   Robert Izsak           : Overlap fitted RIJCOSX, COSX-SCS-MP3, EOM
   Marcus Kettner         : VPT2
   Christian Kollmar      : KDIIS, OOCD, Brueckner-CCSD(T), CCSD density, CASPT2, CASPT2-K
   Simone Kossmann        : Meta GGA functionals, TD-DFT gradient, OOMP2, MP2 Hessian
   Martin Krupicka        : Initial AUTO-CI
   Lucas Lang             : DCDCAS
   Marvin Lechner         : AUTO-CI (C++ implementation), FIC-MRCC
   Dagmar Lenk            : GEPOL surface, SMD
   Dimitrios Liakos       : Extrapolation schemes; Compound Job, initial MDCI parallelization
   Dimitrios Manganas     : Further ROCIS development; embedding schemes
   Dimitrios Pantazis     : SARC Basis sets
   Anastasios Papadopoulos: AUTO-CI, single reference methods and gradients
   Taras Petrenko         : DFT Hessian,TD-DFT gradient, ASA, ECA, R-Raman, ABS, FL, XAS/XES, NRVS
   Peter Pinski           : DLPNO-MP2, DLPNO-MP2 Gradient
   Christoph Reimann      : Effective Core Potentials
   Marius Retegan         : Local ZFS, SOC
   Christoph Riplinger    : Optimizer, TS searches, QM/MM, DLPNO-CCSD(T), (RO)-DLPNO pert. Triples
   Tobias Risthaus        : Range-separated hybrids, TD-DFT gradient, RPA, STAB
   Michael Roemelt        : Original ROCIS implementation
   Masaaki Saitow         : Open-shell DLPNO-CCSD energy and density
   Barbara Sandhoefer     : DKH picture change effects
   Avijit Sen             : IP-ROCIS
   Kantharuban Sivalingam : CASSCF convergence, NEVPT2, FIC-MRCI
   Bernardo de Souza      : ESD, SOC TD-DFT
   Georgi Stoychev        : AutoAux, RI-MP2 NMR, DLPNO-MP2 response
   Willem Van den Heuvel  : Paramagnetic NMR
   Boris Wezisla          : Elementary symmetry handling
   Frank Wennmohs         : Technical directorship


 We gratefully acknowledge several colleagues who have allowed us to
 interface, adapt or use parts of their codes:
   Stefan Grimme, W. Hujo, H. Kruse, P. Pracht,  : VdW corrections, initial TS optimization,
                  C. Bannwarth, S. Ehlert          DFT functionals, gCP, sTDA/sTD-DF
   Ed Valeev, F. Pavosevic, A. Kumar             : LibInt (2-el integral package), F12 methods
   Garnet Chan, S. Sharma, J. Yang, R. Olivares  : DMRG
   Ulf Ekstrom                                   : XCFun DFT Library
   Mihaly Kallay                                 : mrcc  (arbitrary order and MRCC methods)
   Jiri Pittner, Ondrej Demel                    : Mk-CCSD
   Frank Weinhold                                : gennbo (NPA and NBO analysis)
   Christopher J. Cramer and Donald G. Truhlar   : smd solvation model
   Lars Goerigk                                  : TD-DFT with DH, B97 family of functionals
   V. Asgeirsson, H. Jonsson                     : NEB implementation
   FAccTs GmbH                                   : IRC, NEB, NEB-TS, DLPNO-Multilevel, CI-OPT
                                                   MM, QMMM, 2- and 3-layer-ONIOM, Crystal-QMMM,
                                                   LR-CPCM, SF, NACMEs, symmetry and pop. for TD-DFT,
                                                   nearIR, NL-DFT gradient (VV10), updates on ESD,
                                                   ML-optimized integration grids
   S Lehtola, MJT Oliveira, MAL Marques          : LibXC Library
   Liviu Ungur et al                             : ANISO software


 Your calculation uses the libint2 library for the computation of 2-el integrals
 For citations please refer to: http://libint.valeyev.net

 Your ORCA version has been built with support for libXC version: 5.1.0
 For citations please refer to: https://tddft.org/programs/libxc/

 This ORCA versions uses:
   CBLAS   interface :  Fast vector & matrix operations
   LAPACKE interface :  Fast linear algebra routines
   SCALAPACK package :  Parallel linear algebra routines
   Shared memory     :  Shared parallel matrices
   BLAS/LAPACK       :  OpenBLAS 0.3.15  USE64BITINT DYNAMIC_ARCH NO_AFFINITY Prescott SINGLE_THREADED
        Core in use  :  Prescott
   Copyright (c) 2011-2014, The OpenBLAS Project


================================================================================

----- Orbital basis set information -----
Your calculation utilizes the basis: TZVP 

The basis set includes element-specific modifications.

Your calculation utilizes the basis: CP(PPP) 

----- AuxJ basis set information -----
Your calculation utilizes the auxiliary basis: def2/J
   F. Weigend, Phys. Chem. Chem. Phys. 8, 1057 (2006).

================================================================================
                                        WARNINGS
                       Please study these warnings very carefully!
================================================================================


WARNING: your system is open-shell and RHF/RKS was chosen
  ===> : WILL SWITCH to UHF/UKS


INFO   : the flag for use of the SHARK integral package has been found!

================================================================================
                                       INPUT FILE
================================================================================
NAME = input_46.inp
|  1> ! nofrozencore ReducedPop printbasis
|  2> ! B3LYP TZVP
|  3> 
|  4> %basis
|  5> newgto V "CP(PPP)" end
|  6> end
|  7> 
|  8> %pal
|  9> nprocs 6
| 10> end
| 11> 
| 12> % sym SymThresh 1e-2 end
| 13> * xyz -2 2 
| 14> V -0.3722457774566703 -0.31688892004317537 0.9995478089784144
| 15> S 0.8406465455498784 1.761055819137235 1.5786121334409342
| 16> S -2.081697879132906 1.1538341830142844 -0.0072052302058418834
| 17> S 1.8737543887445882 -1.3449691708767093 0.8117308427906459
| 18> S -0.9682437312553952 -1.880839045782037 -0.804915590967988
| 19> O -1.0258746107441423 -0.8672118804569731 2.338653412955805
| 20> C -2.96676101646216 -0.01940347049120346 -0.9400994130491239
| 21> C -2.5179897165173846 -1.2373100742026526 -1.2622052108592832
| 22> C 2.477461986213075 1.16740659884862 1.753448198862989
| 23> C 2.889384684938661 -0.07126161797299713 1.444783872484665
| 24> S -4.559878435898778 0.33514646762101413 -1.6139421790570656
| 25> S -3.6301663546241603 -2.1483073034109488 -2.284415250424694
| 26> S 4.627417950301603 -0.38786665804651366 1.6814552770583397
| 27> S 3.743287311168016 2.2710540118564673 2.3520196990238342
| 28> C -4.873672326255438 -1.0375429932553006 -2.5436636870232547
| 29> C 5.124639969096674 1.2181993194581247 2.157182760746663
| 30> C -6.034822839695591 -1.2926208680437683 -3.2251178680619104
| 31> C 6.40663545941223 1.5562087232715245 2.5021969968388684
| 32> S -7.326189990714769 -0.15673929714046422 -3.330682323679585
| 33> S -6.30205508064568 -2.7634855465898003 -4.0816402921469255
| 34> S 6.81365798553399 3.2091145736618407 3.020491839330983
| 35> S 7.747006512776377 0.4036846122355007 2.2933051306805363
| 36> C 8.678873906899714 1.3361575812604265 0.9753368522790344
| 37> C 7.908705854052356 3.6655275332160726 1.582427818711134
| 38> C 9.12050702102107 2.7592573304585946 1.3358608768288354
| 39> H 8.018016436394085 1.379667754914781 0.10357768476230057
| 40> H 9.53637276438269 0.7052477181135928 0.7181121663302871
| 41> H 9.667244354545907 3.166311814923737 0.468843266727423
| 42> H 9.807541452831225 2.76280836537592 2.1914359978295055
| 43> H 8.215835115424781 4.70094572723563 1.7640325162250103
| 44> H 7.270508328433397 3.653437766811741 0.6930307451904669
| 45> C -7.751432261099126 -3.4624640293220676 -3.205545884017804
| 46> C -8.691528192370106 -1.0603925575065103 -2.5063195218384378
| 47> C -8.850530064649071 -2.397648712147191 -3.23461959837379
| 48> H -8.570738784056257 -1.1174016331735979 -1.4051347584177947
| 49> H -9.591363661653393 -0.4474072415886401 -2.7392482874188078
| 50> H -8.94591121036913 -2.1211912660346637 -4.310535098413672
| 51> H -9.822369680551164 -2.865351868262266 -2.934751212803936
| 52> H -8.080336015603397 -4.296837534394617 -3.8654280115731297
| 53> H -7.497147755591471 -3.8727867939468132 -2.206778674392141
| 54> * 
| 55> 
| 56> % eprnmr
| 57> gtensor true
| 58> Nuclei = all H {aiso,adip,aorb,fgrad,rho}
| 59> Nuclei = all V {aiso,adip,aorb,fgrad,rho}
| 60> end
| 61> 
| 62>                          ****END OF INPUT****
================================================================================

------------------------------------------------------------------------------
                            SYMMETRY HANDLING SETUP
------------------------------------------------------------------------------

------------------
SYMMETRY DETECTION
------------------
The point group will now be determined using a tolerance of 1.0000e-02.
Splitting atom subsets according to nuclear charge, mass and basis set.
Splitting atom subsets according to distance from the molecule's center.
Identifying relative distance patterns of the atoms.
Splitting atom subsets according to atoms' relative distance patterns.
Bring atoms of each subset into input order.
The molecule is neither linear nor planar.
There is at least one atom subset not centered around the molecule's center.
The molecule does not have a center of inversion.
Analyzing the first atom subset for its symmetry.
The subset consists of a single off-center atom.
No testing is needed for point group C1.
This point group has been found:    C1
Largest non-degenerate subgroup:    C1


Mass-centered symmetry-perfected Cartesians (point group C1):

Atom          Symmetry-perfected Cartesians (x, y, z; au)
  0      -0.705249543761   -0.597716146957    1.881945137289
  1       1.586784776657    3.329030331516    2.976218124447
  2      -3.935645854986    2.181547736652   -0.020542391262
  3       3.539075667101   -2.540506264726    1.527022507890
  4      -1.831522452818   -3.553153571715   -1.527996507294
  5      -1.940429031909   -1.637675827348    4.412487993205
  6      -5.608172795767   -0.035550118478   -1.783456908764
  7      -4.760117942108   -2.337060056186   -2.392148652774
  8       4.679917691284    2.207195885555    3.306610406427
  9       5.458338780221   -0.133547815031    2.723319362261
 10      -8.618728417682    0.634452165353   -3.056835193843
 11      -6.861827200675   -4.058595328151   -4.323845678897
 12       8.742745663402   -0.731844633389    3.170563500635
 13       7.071980888830    4.292787244550    4.437746613301
 14      -9.211712932953   -1.959554982623   -4.813754224716
 15       9.682359106680    2.303180217104    4.069558159186
 16     -11.405969403617   -2.441582308796   -6.101515999694
 17      12.104979488298    2.941925421001    4.721540577704
 18     -13.846299657386   -0.295077219220   -6.301003910288
 19     -11.910965153167   -5.221113731306   -7.720108808778
 20      12.874140593005    6.065464803395    5.700975886638
 21      14.637913696992    0.763970488402    4.326792159061
 22      16.398887865016    2.526089027143    1.836193059687
 23      14.943481168039    6.927960300925    2.983428724621
 24      17.233453502376    5.215357814380    2.517484730785
 25      15.150048232204    2.608311339389    0.188806978345
 26      18.019325865809    1.333842170606    1.350108848360
 27      18.266637329928    5.984579311603    0.879058894406
 28      18.531760423072    5.222068297866    4.134287396473
 29      15.523871359746    8.884617121701    3.326611867556
 30      13.737462625273    6.905113953397    1.302711831356
 31     -14.649891088979   -6.541991637174   -6.064530309954
 32     -16.426414938695   -2.002734401337   -4.743183979817
 33     -16.726884932083   -4.529782304509   -6.119471667782
 34     -16.198156037103   -2.110465941496   -2.662246354105
 35     -18.126857541229   -0.844360030137   -5.183355555476
 36     -16.907129175833   -4.007353443673   -8.152657306099
 37     -18.563395652233   -5.413613181537   -5.552802542834
 38     -15.271429109410   -8.118729055161   -7.311526811702
 39     -14.169363013470   -7.317389288828   -4.177133812220


------------------
SYMMETRY REDUCTION
------------------
ORCA supports only abelian point groups.
It is now checked, if the determined point group is supported:
Point Group ( C1    ) is          ... supported

The point group is C1 - hence turning off symmetry
If this is a round-off problem, please increase the symmetry
        detection tolerance (%method SymThresh)

Storing the symmetry object:
Symmetry file                     ... input_46.sym.tmp
Writing symmetry information      ... done

                       ****************************
                       * Single Point Calculation *
                       ****************************

---------------------------------
CARTESIAN COORDINATES (ANGSTROEM)
---------------------------------
  V     -0.373202   -0.316298    0.995882
  S      0.839690    1.761647    1.574947
  S     -2.082654    1.154425   -0.010871
  S      1.872798   -1.344378    0.808066
  S     -0.969200   -1.880248   -0.808581
  O     -1.026831   -0.866621    2.334988
  C     -2.967717   -0.018812   -0.943765
  C     -2.518946   -1.236719   -1.265871
  C      2.476506    1.167998    1.749783
  C      2.888428   -0.070670    1.441119
  S     -4.560835    0.335738   -1.617608
  S     -3.631123   -2.147716   -2.288081
  S      4.626462   -0.387276    1.677790
  S      3.742331    2.271645    2.348354
  C     -4.874629   -1.036952   -2.547329
  C      5.123684    1.218790    2.153517
  C     -6.035779   -1.292030   -3.228783
  C      6.405679    1.556800    2.498532
  S     -7.327146   -0.156148   -3.334348
  S     -6.303011   -2.762894   -4.085306
  S      6.812702    3.209706    3.016827
  S      7.746050    0.404276    2.289640
  C      8.677918    1.336749    0.971672
  C      7.907750    3.666119    1.578762
  C      9.119551    2.759848    1.332196
  H      8.017060    1.380259    0.099912
  H      9.535417    0.705839    0.714447
  H      9.666288    3.166903    0.465178
  H      9.806585    2.763400    2.187771
  H      8.214879    4.701537    1.760367
  H      7.269552    3.654029    0.689365
  C     -7.752388   -3.461873   -3.209211
  C     -8.692484   -1.059801   -2.509985
  C     -8.851486   -2.397058   -3.238285
  H     -8.571695   -1.116810   -1.408800
  H     -9.592320   -0.446816   -2.742914
  H     -8.946867   -2.120600   -4.314200
  H     -9.823326   -2.864761   -2.938417
  H     -8.081292   -4.296246   -3.869093
  H     -7.498104   -3.872196   -2.210444

----------------------------
CARTESIAN COORDINATES (A.U.)
----------------------------
  NO LB      ZA    FRAG     MASS         X           Y           Z
   0 V    23.0000    0    50.940   -0.705250   -0.597716    1.881945
   1 S    16.0000    0    32.060    1.586785    3.329030    2.976218
   2 S    16.0000    0    32.060   -3.935646    2.181548   -0.020542
   3 S    16.0000    0    32.060    3.539076   -2.540506    1.527023
   4 S    16.0000    0    32.060   -1.831522   -3.553154   -1.527997
   5 O     8.0000    0    15.999   -1.940429   -1.637676    4.412488
   6 C     6.0000    0    12.011   -5.608173   -0.035550   -1.783457
   7 C     6.0000    0    12.011   -4.760118   -2.337060   -2.392149
   8 C     6.0000    0    12.011    4.679918    2.207196    3.306610
   9 C     6.0000    0    12.011    5.458339   -0.133548    2.723319
  10 S    16.0000    0    32.060   -8.618728    0.634452   -3.056835
  11 S    16.0000    0    32.060   -6.861827   -4.058595   -4.323846
  12 S    16.0000    0    32.060    8.742746   -0.731845    3.170564
  13 S    16.0000    0    32.060    7.071981    4.292787    4.437747
  14 C     6.0000    0    12.011   -9.211713   -1.959555   -4.813754
  15 C     6.0000    0    12.011    9.682359    2.303180    4.069558
  16 C     6.0000    0    12.011  -11.405969   -2.441582   -6.101516
  17 C     6.0000    0    12.011   12.104979    2.941925    4.721541
  18 S    16.0000    0    32.060  -13.846300   -0.295077   -6.301004
  19 S    16.0000    0    32.060  -11.910965   -5.221114   -7.720109
  20 S    16.0000    0    32.060   12.874141    6.065465    5.700976
  21 S    16.0000    0    32.060   14.637914    0.763970    4.326792
  22 C     6.0000    0    12.011   16.398888    2.526089    1.836193
  23 C     6.0000    0    12.011   14.943481    6.927960    2.983429
  24 C     6.0000    0    12.011   17.233454    5.215358    2.517485
  25 H     1.0000    0     1.008   15.150048    2.608311    0.188807
  26 H     1.0000    0     1.008   18.019326    1.333842    1.350109
  27 H     1.0000    0     1.008   18.266637    5.984579    0.879059
  28 H     1.0000    0     1.008   18.531760    5.222068    4.134287
  29 H     1.0000    0     1.008   15.523871    8.884617    3.326612
  30 H     1.0000    0     1.008   13.737463    6.905114    1.302712
  31 C     6.0000    0    12.011  -14.649891   -6.541992   -6.064530
  32 C     6.0000    0    12.011  -16.426415   -2.002734   -4.743184
  33 C     6.0000    0    12.011  -16.726885   -4.529782   -6.119472
  34 H     1.0000    0     1.008  -16.198156   -2.110466   -2.662246
  35 H     1.0000    0     1.008  -18.126858   -0.844360   -5.183356
  36 H     1.0000    0     1.008  -16.907129   -4.007353   -8.152657
  37 H     1.0000    0     1.008  -18.563396   -5.413613   -5.552803
  38 H     1.0000    0     1.008  -15.271429   -8.118729   -7.311527
  39 H     1.0000    0     1.008  -14.169363   -7.317389   -4.177134

--------------------------------
INTERNAL COORDINATES (ANGSTROEM)
--------------------------------
 V      0   0   0     0.000000000000     0.00000000     0.00000000
 S      1   0   0     2.474727786679     0.00000000     0.00000000
 S      1   2   0     2.469575796711    86.24988547     0.00000000
 S      1   2   3     2.477244630939    85.51771519   148.58101597
 S      1   2   3     2.461146423616   145.46854140    75.46502289
 O      1   2   3     1.588486648061   107.17626343   255.05637556
 C      3   1   2     1.740722523852    99.73176943   165.36333567
 C      7   3   1     1.337327304739   124.90858861   343.05810867
 C      2   1   3     1.749900520977   101.35939597   202.61043231
 C      9   2   1     1.341362340111   125.27707839     8.06122830
 S      7   3   1     1.765727284727   121.86558405   165.51325563
 S      8   7   3     1.764019895286   113.47295238   182.88811116
 S     10   9   2     1.782417385645   115.65294883   178.32227828
 S      9   2   1     1.782873861590   119.18622103   186.60224230
 C     11   7   3     1.687342598289   102.39862266   173.91282012
 C     13  10   9     1.747281974613    98.64801060   356.14329570
 C     15  11   7     1.370297426811   125.66418107   176.20163141
 C     16  13  10     1.369962633564   124.17017854   178.40247018
 S     17  15  11     1.723078615774   122.87587399     5.09518871
 S     17  15  11     1.722929666631   122.51836056   183.43023487
 S     18  16  13     1.779436604878   121.10364304   181.81242497
 S     18  16  13     1.780039943081   121.02053862     7.93354164
 C     22  18  16     1.864114551487    97.78836086   113.85038389
 C     21  18  16     1.864261449314    97.87952975   245.99874651
 C     23  22  18     1.533046077564   116.23715631    57.94801607
 H     23  22  18     1.094801250312   106.32624037   296.54455782
 H     23  22  18     1.095224216799   105.62184852   181.98190655
 H     25  23  22     1.102875605596   107.49057337   179.08965901
 H     25  23  22     1.097286520475   111.51468136    61.45182355
 H     24  21  18     1.095170984759   105.56185735   178.41238143
 H     24  21  18     1.094746271309   106.35336922    63.85425516
 C     20  17  15     1.832158983958   102.16181503   118.26154437
 C     19  17  15     1.833115285226   101.86977561   241.86136425
 C     32  20  17     1.530585810180   107.07184012    55.07926617
 H     33  19  17     1.109255605827   112.99582781    73.44636884
 H     33  19  17     1.113422956089   103.67808103   191.18894703
 H     34  32  20     1.114953113676   104.61130773    52.55511263
 H     34  32  20     1.119437148723   109.12681320   166.46073633
 H     32  20  17     1.113463626690   103.66056765   168.36956709
 H     32  20  17     1.109306684346   112.97350567   286.10061503

---------------------------
INTERNAL COORDINATES (A.U.)
---------------------------
 V      0   0   0     0.000000000000     0.00000000     0.00000000
 S      1   0   0     4.676557772828     0.00000000     0.00000000
 S      1   2   0     4.666821922743    86.24988547     0.00000000
 S      1   2   3     4.681313919202    85.51771519   148.58101597
 S      1   2   3     4.650892716114   145.46854140    75.46502289
 O      1   2   3     3.001804732225   107.17626343   255.05637556
 C      3   1   2     3.289488845228    99.73176943   165.36333567
 C      7   3   1     2.527182357372   124.90858861   343.05810867
 C      2   1   3     3.306832746252   101.35939597   202.61043231
 C      9   2   1     2.534807469165   125.27707839     8.06122830
 S      7   3   1     3.336740995326   121.86558405   165.51325563
 S      8   7   3     3.333514496879   113.47295238   182.88811116
 S     10   9   2     3.368280715210   115.65294883   178.32227828
 S      9   2   1     3.369143329732   119.18622103   186.60224230
 C     11   7   3     3.188615404865   102.39862266   173.91282012
 C     13  10   9     3.301884410757    98.64801060   356.14329570
 C     15  11   7     2.589486858689   125.66418107   176.20163141
 C     16  13  10     2.588854191142   124.17017854   178.40247018
 S     17  15  11     3.256146691030   122.87587399     5.09518871
 S     17  15  11     3.255865217941   122.51836056   183.43023487
 S     18  16  13     3.362647855894   121.10364304   181.81242497
 S     18  16  13     3.363787999863   121.02053862     7.93354164
 C     22  18  16     3.522665984568    97.78836086   113.85038389
 C     21  18  16     3.522943581230    97.87952975   245.99874651
 C     23  22  18     2.897037237278   116.23715631    57.94801607
 H     23  22  18     2.068874534164   106.32624037   296.54455782
 H     23  22  18     2.069673824988   105.62184852   181.98190655
 H     25  23  22     2.084132854359   107.49057337   179.08965901
 H     25  23  22     2.073571014142   111.51468136    61.45182355
 H     24  21  18     2.069573231010   105.56185735   178.41238143
 H     24  21  18     2.068770638905   106.35336922    63.85425516
 C     20  17  15     3.462278713484   102.16181503   118.26154437
 C     19  17  15     3.464085860982   101.86977561   241.86136425
 C     32  20  17     2.892388005707   107.07184012    55.07926617
 H     33  19  17     2.096189307530   112.99582781    73.44636884
 H     33  19  17     2.104064458229   103.67808103   191.18894703
 H     34  32  20     2.106956037011   104.61130773    52.55511263
 H     34  32  20     2.115429635224   109.12681320   166.46073633
 H     32  20  17     2.104141314526   103.66056765   168.36956709
 H     32  20  17     2.096285831942   112.97350567   286.10061503

---------------------
BASIS SET INFORMATION
---------------------
There are 5 groups of distinct atoms

 Group   1 Type V   : 17s11p5d1f contracted to 17s7p3d1f pattern {11111111111111111/3311111/311/1}
 Group   2 Type S   : 14s9p1d contracted to 5s4p1d pattern {73211/6111/1}
 Group   3 Type O   : 11s6p1d contracted to 5s3p1d pattern {62111/411/1}
 Group   4 Type C   : 11s6p1d contracted to 5s3p1d pattern {62111/411/1}
 Group   5 Type H   : 5s1p contracted to 3s1p pattern {311/1}

Atom   0V    basis set group =>   1
Atom   1S    basis set group =>   2
Atom   2S    basis set group =>   2
Atom   3S    basis set group =>   2
Atom   4S    basis set group =>   2
Atom   5O    basis set group =>   3
Atom   6C    basis set group =>   4
Atom   7C    basis set group =>   4
Atom   8C    basis set group =>   4
Atom   9C    basis set group =>   4
Atom  10S    basis set group =>   2
Atom  11S    basis set group =>   2
Atom  12S    basis set group =>   2
Atom  13S    basis set group =>   2
Atom  14C    basis set group =>   4
Atom  15C    basis set group =>   4
Atom  16C    basis set group =>   4
Atom  17C    basis set group =>   4
Atom  18S    basis set group =>   2
Atom  19S    basis set group =>   2
Atom  20S    basis set group =>   2
Atom  21S    basis set group =>   2
Atom  22C    basis set group =>   4
Atom  23C    basis set group =>   4
Atom  24C    basis set group =>   4
Atom  25H    basis set group =>   5
Atom  26H    basis set group =>   5
Atom  27H    basis set group =>   5
Atom  28H    basis set group =>   5
Atom  29H    basis set group =>   5
Atom  30H    basis set group =>   5
Atom  31C    basis set group =>   4
Atom  32C    basis set group =>   4
Atom  33C    basis set group =>   4
Atom  34H    basis set group =>   5
Atom  35H    basis set group =>   5
Atom  36H    basis set group =>   5
Atom  37H    basis set group =>   5
Atom  38H    basis set group =>   5
Atom  39H    basis set group =>   5

-------------------------
BASIS SET IN INPUT FORMAT
-------------------------

 # Basis set for element : H 
 NewGTO H 
 S 3 
   1      34.0613410000      0.0254393168
   2       5.1235746000      0.1900859340
   3       1.1646626000      0.8524411390
 S 1 
   1       0.3272304100      1.0000000000
 S 1 
   1       0.1030724100      1.0000000000
 P 1 
   1       0.8000000000      1.0000000000
  end;

 # Basis set for element : C 
 NewGTO C 
 S 6 
   1   13575.3496820000      0.0006064601
   2    2035.2333680000      0.0046978985
   3     463.2256235900      0.0243324735
   4     131.2001959800      0.0973999560
   5      42.8530158900      0.3019558443
   6      15.5841857700      0.6623361013
 S 2 
   1       6.2067138500      0.6559530795
   2       2.5764896500      0.3758563390
 S 1 
   1       0.5769633900      1.0000000000
 S 1 
   1       0.2297283100      1.0000000000
 S 1 
   1       0.0951644400      1.0000000000
 P 4 
   1      34.6972322400      0.0113272290
   2       7.9582622800      0.0761696612
   3       2.3780826900      0.3019225154
   4       0.8143320800      0.7278502776
 P 1 
   1       0.2888754700      1.0000000000
 P 1 
   1       0.1005682400      1.0000000000
 D 1 
   1       0.8000000000      1.0000000000
  end;

 # Basis set for element : O 
 NewGTO O 
 S 6 
   1   27032.3826310000      0.0005722654
   2    4052.3871392000      0.0044353333
   3     922.3272271000      0.0230201034
   4     261.2407098900      0.0928224938
   5      85.3546413500      0.2937849971
   6      31.0350352400      0.6740160462
 S 2 
   1      12.2608607300      0.6383993750
   2       4.9987076000      0.3953458663
 S 1 
   1       1.1703108200      1.0000000000
 S 1 
   1       0.4647474100      1.0000000000
 S 1 
   1       0.1850453600      1.0000000000
 P 4 
   1      63.2749548000      0.0120183316
   2      14.6270493800      0.0830054304
   3       4.4501223500      0.3199174388
   4       1.5275799600      0.7071554258
 P 1 
   1       0.5293511800      1.0000000000
 P 1 
   1       0.1747842100      1.0000000000
 D 1 
   1       1.2000000000      1.0000000000
  end;

 # Basis set for element : S 
 NewGTO S 
 S 7 
   1   60700.9281040000      0.0005238013
   2    9102.6106854000      0.0040506304
   3    2071.4166009000      0.0208270003
   4     586.0247682100      0.0814968475
   5     190.5539502100      0.2374911358
   6      67.6303842600      0.4472617145
   7      25.1273069100      0.3489191913
 S 3 
   1     112.5746301000      0.1004556993
   2      34.7955542200      0.4339117282
   3       6.5115556200     -1.2084330582
 S 2 
   1       3.2399032300      0.6749812922
   2       1.5477160900      0.3470879597
 S 1 
   1       0.4054103000      1.0000000000
 S 1 
   1       0.1455065100      1.0000000000
 P 6 
   1     564.3671602700      0.0025564845
   2     133.4262437900      0.0202874255
   3      42.4682711900      0.0927670112
   4      15.6165275800      0.2650208365
   5       6.1093988500      0.4486298663
   6       2.4404160200      0.3596369916
 P 1 
   1       0.8388220100      1.0000000000
 P 1 
   1       0.3128874700      1.0000000000
 P 1 
   1       0.1077010900      1.0000000000
 D 1 
   1       0.5500000000      1.0000000000
  end;

 # Basis set for element : V 
 NewGTO V 
 S 1 
   1  4239814.9912500000      1.0000000000
 S 1 
   1  1695925.9965000001      1.0000000000
 S 1 
   1  678370.3986000001      1.0000000000
 S 1 
   1  271348.1594400000      1.0000000000
 S 1 
   1   40672.0050780000      1.0000000000
 S 1 
   1    9257.0761385000      1.0000000000
 S 1 
   1    2622.7328773000      1.0000000000
 S 1 
   1     858.5948018500      1.0000000000
 S 1 
   1     314.1941865000      1.0000000000
 S 1 
   1     124.4786212700      1.0000000000
 S 1 
   1      50.4693993090      1.0000000000
 S 1 
   1      12.5138469110      1.0000000000
 S 1 
   1       5.3447758082      1.0000000000
 S 1 
   1       1.5755631295      1.0000000000
 S 1 
   1       0.6306903307      1.0000000000
 S 1 
   1       0.0879544416      1.0000000000
 S 1 
   1       0.0342969197      1.0000000000
 P 3 
   1    1450.0319327000     -0.0222847647
   2     343.7504988400     -0.1817959329
   3     110.8252170800     -0.8607412073
 P 3 
   1      41.8224645460     -0.2522537814
   2      17.0880737100     -0.4620379520
   3       7.2613218939     -0.3990010670
 P 1 
   1       2.9458145262      1.0000000000
 P 1 
   1       1.1650209680      1.0000000000
 P 1 
   1       0.4339937839      1.0000000000
 D 3 
   1      27.3603358640      0.0575501019
   2       7.4542765527      0.3023798347
   3       2.4632270217      0.7724212088
 D 1 
   1       0.8249954244      1.0000000000
 D 1 
   1       0.2526297057      1.0000000000
 P 1 
   1       0.1112480000      1.0000000000
 P 1 
   1       0.0363780000      1.0000000000
 F 1 
   1       1.8000000000      1.0000000000
  end;

---------------------------------
AUXILIARY/J BASIS SET INFORMATION
---------------------------------
There are 5 groups of distinct atoms

 Group   1 Type V   : 19s5p5d3f3g contracted to 8s5p5d2f3g pattern {121111111/11111/11111/21/111}
 Group   2 Type S   : 14s5p5d2f1g contracted to 8s4p3d1f1g pattern {71111111/2111/311/2/1}
 Group   3 Type O   : 12s5p4d2f1g contracted to 6s4p3d1f1g pattern {711111/2111/211/2/1}
 Group   4 Type C   : 12s5p4d2f1g contracted to 6s4p3d1f1g pattern {711111/2111/211/2/1}
 Group   5 Type H   : 5s2p1d contracted to 3s1p1d pattern {311/2/1}

Atom   0V    basis set group =>   1
Atom   1S    basis set group =>   2
Atom   2S    basis set group =>   2
Atom   3S    basis set group =>   2
Atom   4S    basis set group =>   2
Atom   5O    basis set group =>   3
Atom   6C    basis set group =>   4
Atom   7C    basis set group =>   4
Atom   8C    basis set group =>   4
Atom   9C    basis set group =>   4
Atom  10S    basis set group =>   2
Atom  11S    basis set group =>   2
Atom  12S    basis set group =>   2
Atom  13S    basis set group =>   2
Atom  14C    basis set group =>   4
Atom  15C    basis set group =>   4
Atom  16C    basis set group =>   4
Atom  17C    basis set group =>   4
Atom  18S    basis set group =>   2
Atom  19S    basis set group =>   2
Atom  20S    basis set group =>   2
Atom  21S    basis set group =>   2
Atom  22C    basis set group =>   4
Atom  23C    basis set group =>   4
Atom  24C    basis set group =>   4
Atom  25H    basis set group =>   5
Atom  26H    basis set group =>   5
Atom  27H    basis set group =>   5
Atom  28H    basis set group =>   5
Atom  29H    basis set group =>   5
Atom  30H    basis set group =>   5
Atom  31C    basis set group =>   4
Atom  32C    basis set group =>   4
Atom  33C    basis set group =>   4
Atom  34H    basis set group =>   5
Atom  35H    basis set group =>   5
Atom  36H    basis set group =>   5
Atom  37H    basis set group =>   5
Atom  38H    basis set group =>   5
Atom  39H    basis set group =>   5

-------------------------------------
AUXILIARY/J BASIS SET IN INPUT FORMAT
-------------------------------------

 # Auxiliary/J basis set for element : H 
 NewAuxJGTO H 
 S 3 
   1      15.6752927000      0.1007184237
   2       3.6063578000      0.3404257499
   3       1.2080016000      0.6491996172
 S 1 
   1       0.4726794000      1.0000000000
 S 1 
   1       0.2018100000      1.0000000000
 P 2 
   1       2.0281365000      0.5596620919
   2       0.5358730000      0.5596620919
 D 1 
   1       2.2165124000      1.0000000000
  end;

 # Auxiliary/J basis set for element : C 
 NewAuxJGTO C 
 S 7 
   1    1861.0916331000      0.0134602335
   2     642.9939764000      0.0299160374
   3     235.1105725000      0.1008649584
   4      90.7028894000      0.2370970548
   5      36.7794552000      0.3924037254
   6      15.6046273000      0.3195862154
   7       6.8907294000      0.0530104441
 S 1 
   1       3.1478850000     -1.0000000000
 S 1 
   1       1.4777287000      1.0000000000
 S 1 
   1       0.7076466000      1.0000000000
 S 1 
   1       0.3430122000      1.0000000000
 S 1 
   1       0.1669453000      1.0000000000
 P 2 
   1      13.5472892000     -0.6769313712
   2       5.4669419000     -0.3779500978
 P 1 
   1       2.1751721000      1.0000000000
 P 1 
   1       0.8582194000      1.0000000000
 P 1 
   1       0.3376720000      1.0000000000
 D 2 
   1       5.9287253000     -0.3533329857
   2       1.9809209000     -0.7456525731
 D 1 
   1       0.8055417000     -1.0000000000
 D 1 
   1       0.3531244000     -1.0000000000
 F 2 
   1       1.6755626000      0.6311076882
   2       0.5997536000      0.4968166032
 G 1 
   1       1.0024600000     -1.0000000000
  end;

 # Auxiliary/J basis set for element : O 
 NewAuxJGTO O 
 S 7 
   1    2876.8216605000      0.0168151159
   2    1004.7443032000      0.0340137548
   3     369.7579954000      0.1194951309
   4     142.9442404000      0.2664627624
   5      57.8366425000      0.4202764046
   6      24.3864983000      0.2765077335
   7      10.6622662000      0.0057008815
 S 1 
   1       4.8070437000     -1.0000000000
 S 1 
   1       2.2210770000      1.0000000000
 S 1 
   1       1.0447795000      1.0000000000
 S 1 
   1       0.4968425000      1.0000000000
 S 1 
   1       0.2371384000      1.0000000000
 P 2 
   1      64.2613382000     -0.2731534179
   2      16.3006076000     -0.8168011598
 P 1 
   1       4.3550542000      1.0000000000
 P 1 
   1       1.2019554000      1.0000000000
 P 1 
   1       0.3354196000      1.0000000000
 D 2 
   1       9.2146611000     -0.4661230638
   2       2.8435251000     -0.6600908911
 D 1 
   1       0.9955759000     -1.0000000000
 D 1 
   1       0.3649441000     -1.0000000000
 F 2 
   1       2.6420115000      0.5931563945
   2       0.7345613000      0.5931563945
 G 1 
   1       1.3931000000     -1.0000000000
  end;

 # Auxiliary/J basis set for element : S 
 NewAuxJGTO S 
 S 7 
   1    7399.0303145000      0.0295137551
   2    2710.1675859000      0.0559686311
   3    1034.3279062000      0.1764696370
   4     410.4645411000      0.3577969368
   5     168.9762502000      0.4299293578
   6      71.9687889000      0.1259148089
   7      31.6172683000     -0.0646025788
 S 1 
   1      14.2796836000      1.0000000000
 S 1 
   1       6.6060948000      1.0000000000
 S 1 
   1       3.1181477000      1.0000000000
 S 1 
   1       1.4954039000     -1.0000000000
 S 1 
   1       0.7254779000      1.0000000000
 S 1 
   1       0.3544216000      1.0000000000
 S 1 
   1       0.1735525000      1.0000000000
 P 2 
   1      12.6998799000      1.4059102813
   2       4.4295784000     -1.2124994202
 P 1 
   1       1.5232889000      1.0000000000
 P 1 
   1       0.5194667000     -1.0000000000
 P 1 
   1       0.1766547000     -1.0000000000
 D 3 
   1      16.8546461000      1.0295742104
   2       5.0810461000     -0.7461553923
   3       1.5102323000      0.8357028005
 D 1 
   1       0.4451331000      1.0000000000
 D 1 
   1       0.1308362000      1.0000000000
 F 2 
   1       1.0809860000      0.5572698934
   2       0.4161474000      0.5572698934
 G 1 
   1       0.6707100000     -1.0000000000
  end;

 # Auxiliary/J basis set for element : V 
 NewAuxJGTO V 
 S 12 
   1   11942.0842430000      0.0459866720
   2    2430.7110193000      0.1744615821
   3     841.0764301000      0.2900402792
   4     494.7508273000      0.1411212903
   5     291.0298903000      0.2660697186
   6     171.1940483000      0.0446365706
   7      59.2366916000     -0.0408204801
   8      34.8451117000      0.1394665381
   9      20.4971240000      0.2164746715
  10      12.0571314000      0.0864266611
  11       7.0924300000     -0.0568501658
  12       4.1720176000     -0.0126212852
 S 1 
   1       2.4541279000      1.0000000000
 S 1 
   1       1.4436046000      1.0000000000
 S 1 
   1       0.8491792000      1.0000000000
 S 1 
   1       0.2938336000      1.0000000000
 S 1 
   1       0.1728433000      1.0000000000
 S 1 
   1       0.1016725000      1.0000000000
 S 1 
   1       0.0598074000      1.0000000000
 P 1 
   1      16.7130979000     -1.0000000000
 P 1 
   1       4.7454037000     -1.0000000000
 P 1 
   1       1.3889998000      1.0000000000
 P 1 
   1       0.4142440000     -1.0000000000
 P 1 
   1       0.1243234000      1.0000000000
 D 1 
   1       7.7143225000      1.0000000000
 D 1 
   1       3.1170731000      1.0000000000
 D 1 
   1       1.2767950000     -1.0000000000
 D 1 
   1       0.5273386000      1.0000000000
 D 1 
   1       0.2184050000      1.0000000000
 F 2 
   1       3.1309344000     -1.0825667766
   2       1.0419780000      0.1809223232
 F 1 
   1       0.3559044000      1.0000000000
 G 1 
   1       8.7130110000      1.0000000000
 G 1 
   1       2.7493872000      1.0000000000
 G 1 
   1       0.8775089000      1.0000000000
  end;



           ************************************************************
           *        Program running with 6 parallel MPI-processes     *
           *              working on a common directory               *
           ************************************************************
------------------------------------------------------------------------------
                           ORCA GTO INTEGRAL CALCULATION
                           -- RI-GTO INTEGRALS CHOSEN --
------------------------------------------------------------------------------
------------------------------------------------------------------------------
                   ___                                                        
                  /   \      - P O W E R E D   B Y -                         
                 /     \                                                     
                 |  |  |   _    _      __       _____    __    __             
                 |  |  |  | |  | |    /  \     |  _  \  |  |  /  |          
                  \  \/   | |  | |   /    \    | | | |  |  | /  /          
                 / \  \   | |__| |  /  /\  \   | |_| |  |  |/  /          
                |  |  |   |  __  | /  /__\  \  |    /   |      \           
                |  |  |   | |  | | |   __   |  |    \   |  |\   \          
                \     /   | |  | | |  |  |  |  | |\  \  |  | \   \       
                 \___/    |_|  |_| |__|  |__|  |_| \__\ |__|  \__/        
                                                                              
                      - O R C A' S   B I G   F R I E N D -                    
                                      &                                       
                       - I N T E G R A L  F E E D E R -                       
                                                                              
 v1 FN, 2020, v2 2021                                                         
------------------------------------------------------------------------------


Reading SHARK input file input_46.SHARKINP.tmp ... ok
----------------------
SHARK INTEGRAL PACKAGE
----------------------

Number of atoms                             ...     40
Number of basis functions                   ...    681
Number of shells                            ...    331
Maximum angular momentum                    ...      3
Integral batch strategy                     ... SHARK/LIBINT Hybrid
RI-J (if used) integral strategy            ... SPLIT-RIJ (Revised 2003 algorithm where possible)
Printlevel                                  ...      1
Contraction scheme used                     ... SEGMENTED contraction
Coulomb Range Separation                    ... NOT USED
Exchange Range Separation                   ... NOT USED
Finite Nucleus Model                        ... NOT USED
Auxiliary Coulomb fitting basis             ... AVAILABLE
   # of basis functions in Aux-J            ...   1568
   # of shells in Aux-J                     ...    512
   Maximum angular momentum in Aux-J        ...      4
Auxiliary J/K fitting basis                 ... NOT available
Auxiliary Correlation fitting basis         ... NOT available
Auxiliary 'external' fitting basis          ... NOT available
Integral threshold                          ...     1.000000e-10
Primitive cut-off                           ...     1.000000e-11
Primitive pair pre-selection threshold      ...     1.000000e-11

Calculating pre-screening integrals         ... done (  0.1 sec) Dimension = 331
Organizing shell pair data                  ... done (  0.1 sec)
Shell pair information
Total number of shell pairs                 ...     54946
Shell pairs after pre-screening             ...     22721
Total number of primitive shell pairs       ...    221635
Primitive shell pairs kept                  ...     55445
          la=0 lb=0:   6425 shell pairs
          la=1 lb=0:   9088 shell pairs
          la=1 lb=1:   3205 shell pairs
          la=2 lb=0:   2143 shell pairs
          la=2 lb=1:   1540 shell pairs
          la=2 lb=2:    198 shell pairs
          la=3 lb=0:     55 shell pairs
          la=3 lb=1:     54 shell pairs
          la=3 lb=2:     12 shell pairs
          la=3 lb=3:      1 shell pairs

Calculating one electron integrals          ... done (  0.0 sec)
Calculating RI/J V-Matrix + Cholesky decomp.... done (  0.2 sec)
Calculating Nuclear repulsion               ... done (  0.0 sec) ENN=   5088.063235365749 Eh

SHARK setup successfully completed in   0.8 seconds

Maximum memory used throughout the entire GTOINT-calculation: 41.9 MB


           ************************************************************
           *        Program running with 6 parallel MPI-processes     *
           *              working on a common directory               *
           ************************************************************
-------------------------------------------------------------------------------
                                 ORCA SCF
-------------------------------------------------------------------------------

------------
SCF SETTINGS
------------
Hamiltonian:
 Density Functional     Method          .... DFT(GTOs)
 Exchange Functional    Exchange        .... B88
   X-Alpha parameter    XAlpha          ....  0.666667
   Becke's b parameter  XBeta           ....  0.004200
 Correlation Functional Correlation     .... LYP
 LDA part of GGA corr.  LDAOpt          .... VWN-5
 Gradients option       PostSCFGGA      .... off
 Hybrid DFT is turned on
   Fraction HF Exchange ScalHFX         ....  0.200000
   Scaling of DF-GGA-X  ScalDFX         ....  0.720000
   Scaling of DF-GGA-C  ScalDFC         ....  0.810000
   Scaling of DF-LDA-C  ScalLDAC        ....  1.000000
   Perturbative correction              ....  0.000000
   Density functional embedding theory  .... OFF
   NL short-range parameter             ....  4.800000
 RI-approximation to the Coulomb term is turned on
   Number of AuxJ basis functions       .... 1568
   RIJ-COSX (HFX calculated with COS-X)).... on


General Settings:
 Integral files         IntName         .... input_46
 Hartree-Fock type      HFTyp           .... UHF
 Total Charge           Charge          ....   -2
 Multiplicity           Mult            ....    2
 Number of Electrons    NEL             ....  321
 Basis Dimension        Dim             ....  681
 Nuclear Repulsion      ENuc            ....   5088.0632353657 Eh

Convergence Acceleration:
 DIIS                   CNVDIIS         .... on
   Start iteration      DIISMaxIt       ....    12
   Startup error        DIISStart       ....  0.200000
   # of expansion vecs  DIISMaxEq       ....     5
   Bias factor          DIISBfac        ....   1.050
   Max. coefficient     DIISMaxC        ....  10.000
 Trust-Rad. Augm. Hess. CNVTRAH         .... auto
   Auto Start mean grad. ratio tolernc. ....  1.125000
   Auto Start start iteration           ....    20
   Auto Start num. interpolation iter.  ....    10
   Max. Number of Micro iterations      ....    16
   Max. Number of Macro iterations      .... Maxiter - #DIIS iter
   Number of Davidson start vectors     ....     2
   Converg. threshold I  (grad. norm)   ....   5.000e-05
   Converg. threshold II (energy diff.) ....   1.000e-06
   Grad. Scal. Fac. for Micro threshold ....   0.100
   Minimum threshold for Micro iter.    ....   0.010
   NR start threshold (gradient norm)   ....   0.001
   Initial trust radius                 ....   0.400
   Minimum AH scaling param. (alpha)    ....   1.000
   Maximum AH scaling param. (alpha)    .... 1000.000
   Orbital update algorithm             .... Taylor
   White noise on init. David. guess    .... on
   Maximum white noise                  ....   0.010
   Quad. conv. algorithm                .... NR
 SOSCF                  CNVSOSCF        .... off
 Level Shifting         CNVShift        .... on
   Level shift para.    LevelShift      ....    0.2500
   Turn off err/grad.   ShiftErr        ....    0.0010
 Zerner damping         CNVZerner       .... off
 Static damping         CNVDamp         .... on
   Fraction old density DampFac         ....    0.7000
   Max. Damping (<1)    DampMax         ....    0.9800
   Min. Damping (>=0)   DampMin         ....    0.0000
   Turn off err/grad.   DampErr         ....    0.1000
 Fernandez-Rico         CNVRico         .... off

SCF Procedure:
 Maximum # iterations   MaxIter         ....   125
 SCF integral mode      SCFMode         .... Direct
   Integral package                     .... SHARK and LIBINT hybrid scheme
 Reset frequency        DirectResetFreq ....    20
 Integral Threshold     Thresh          ....  1.000e-10 Eh
 Primitive CutOff       TCut            ....  1.000e-11 Eh

Convergence Tolerance:
 Convergence Check Mode ConvCheckMode   .... Total+1el-Energy
 Convergence forced     ConvForced      .... 0
 Energy Change          TolE            ....  1.000e-06 Eh
 1-El. energy change                    ....  1.000e-03 Eh
 DIIS Error             TolErr          ....  1.000e-06


Diagonalization of the overlap matrix:
Smallest eigenvalue                        ... 8.350e-05
Time for diagonalization                   ...    0.247 sec
Threshold for overlap eigenvalues          ... 1.000e-08
Number of eigenvalues below threshold      ... 0
Time for construction of square roots      ...    0.158 sec
Total time needed                          ...    0.411 sec

Time for model grid setup =    0.391 sec

------------------------------
INITIAL GUESS: MODEL POTENTIAL
------------------------------
Loading Hartree-Fock densities                     ... done
Calculating cut-offs                               ... done
Initializing the effective Hamiltonian             ... done
Setting up the integral package (SHARK)            ... done
Starting the Coulomb interaction                   ... done (   0.4 sec)
Reading the grid                                   ... done
Mapping shells                                     ... done
Starting the XC term evaluation                    ... done (   0.2 sec)
  promolecular density results
     # of electrons  =    318.994831023
     EX              =   -428.374578873
     EC              =    -12.548481691
     EX+EC           =   -440.923060564
Transforming the Hamiltonian                       ... done (   0.2 sec)
Diagonalizing the Hamiltonian                      ... done (   0.2 sec)
Back transforming the eigenvectors                 ... done (   0.1 sec)
Now organizing SCF variables                       ... done
                      ------------------
                      INITIAL GUESS DONE (   1.5 sec)
                      ------------------
-------------------
DFT GRID GENERATION
-------------------

General Integration Accuracy     IntAcc      ... 4.388
Radial Grid Type                 RadialGrid  ... OptM3 with GC (2021)
Angular Grid (max. ang.)         AngularGrid ... 4 (Lebedev-302)
Angular grid pruning method      GridPruning ... 4 (adaptive)
Weight generation scheme         WeightScheme... Becke
Basis function cutoff            BFCut       ... 1.0000e-10
Integration weight cutoff        WCut        ... 1.0000e-14
Angular grids for H and He will be reduced by one unit
Partially contracted basis set               ... off
Rotationally invariant grid construction     ... off

Total number of grid points                  ...   237264
Total number of batches                      ...     3726
Average number of points per batch           ...       63
Average number of grid points per atom       ...     5932
Time for grid setup =    1.917 sec

--------------------
COSX GRID GENERATION
--------------------

GRIDX 1
-------
General Integration Accuracy     IntAcc      ... 3.816
Radial Grid Type                 RadialGrid  ... OptM3 with GC (2021)
Angular Grid (max. ang.)         AngularGrid ... 1 (Lebedev-50)
Angular grid pruning method      GridPruning ... 4 (adaptive)
Weight generation scheme         WeightScheme... Becke
Basis function cutoff            BFCut       ... 1.0000e-10
Integration weight cutoff        WCut        ... 1.0000e-14
Angular grids for H and He will be reduced by one unit
Partially contracted basis set               ... on
Rotationally invariant grid construction     ... off

Total number of grid points                  ...    29180
Total number of batches                      ...      480
Average number of points per batch           ...       60
Average number of grid points per atom       ...      730
UseSFitting                                  ... on

GRIDX 2
-------
General Integration Accuracy     IntAcc      ... 4.020
Radial Grid Type                 RadialGrid  ... OptM3 with GC (2021)
Angular Grid (max. ang.)         AngularGrid ... 2 (Lebedev-110)
Angular grid pruning method      GridPruning ... 4 (adaptive)
Weight generation scheme         WeightScheme... Becke
Basis function cutoff            BFCut       ... 1.0000e-10
Integration weight cutoff        WCut        ... 1.0000e-14
Angular grids for H and He will be reduced by one unit
Partially contracted basis set               ... on
Rotationally invariant grid construction     ... off

Total number of grid points                  ...    64044
Total number of batches                      ...     1024
Average number of points per batch           ...       62
Average number of grid points per atom       ...     1601
UseSFitting                                  ... on

GRIDX 3
-------
General Integration Accuracy     IntAcc      ... 4.338
Radial Grid Type                 RadialGrid  ... OptM3 with GC (2021)
Angular Grid (max. ang.)         AngularGrid ... 3 (Lebedev-194)
Angular grid pruning method      GridPruning ... 4 (adaptive)
Weight generation scheme         WeightScheme... Becke
Basis function cutoff            BFCut       ... 1.0000e-10
Integration weight cutoff        WCut        ... 1.0000e-14
Angular grids for H and He will be reduced by one unit
Partially contracted basis set               ... on
Rotationally invariant grid construction     ... off

Total number of grid points                  ...   147233
Total number of batches                      ...     2322
Average number of points per batch           ...       63
Average number of grid points per atom       ...     3681
UseSFitting                                  ... on

Time for X-Grid setup             =    2.166 sec

--------------
SCF ITERATIONS
--------------
ITER       Energy         Delta-E        Max-DP      RMS-DP      [F,P]     Damp
               ***  Starting incremental Fock matrix formation  ***
  0  -6336.8544296869   0.000000000000 0.05334340  0.00067262  0.2259945 0.7000
  1  -6337.1816709206  -0.327241233691 0.14510141  0.00067064  0.1558172 0.7000
                               ***Turning on DIIS***
  2  -6337.3536961665  -0.172025245874 0.06805116  0.00035323  0.1089792 0.7000
  3  -6337.4461437298  -0.092447563325 0.05748554  0.00057781  0.0771312 0.0000
  4  -6337.6702214185  -0.224077688665 0.07887892  0.00034759  0.0109317 0.0000
  5  -6337.6759698537  -0.005748435189 0.01658723  0.00008800  0.0093684 0.0000
  6  -6337.6771388134  -0.001168959699 0.00407149  0.00003949  0.0033808 0.0000
  7  -6337.6774876666  -0.000348853217 0.00259625  0.00002293  0.0012234 0.0000
  8  -6337.6776361615  -0.000148494863 0.00254325  0.00001948  0.0013990 0.0000
  9  -6337.6777349034  -0.000098741904 0.00494222  0.00004364  0.0006905 0.0000
               *** Restarting incremental Fock matrix formation ***
                                   *** Resetting DIIS ***
 10  -6337.6778639399  -0.000129036552 0.00168932  0.00001396  0.0006596 0.0000
 11  -6337.6778469920   0.000016947938 0.00051013  0.00000369  0.0017295 0.0000
 12  -6337.6778769526  -0.000029960613 0.00069934  0.00000525  0.0006076 0.0000
 13  -6337.6778828348  -0.000005882242 0.00045311  0.00000399  0.0001904 0.0000
 14  -6337.6778849806  -0.000002145764 0.00035827  0.00000283  0.0001673 0.0000
 15  -6337.6778866731  -0.000001692548 0.00014008  0.00000127  0.0001044 0.0000
 16  -6337.6778868575  -0.000000184387 0.00010304  0.00000090  0.0000664 0.0000
 17  -6337.6778870627  -0.000000205212 0.00029661  0.00000099  0.0000388 0.0000
                 **** Energy Check signals convergence ****

               *****************************************************
               *                     SUCCESS                       *
               *           SCF CONVERGED AFTER  18 CYCLES          *
               *****************************************************

Old exchange energy                            =    -85.960396992 Eh
New exchange energy                            =    -85.960378684 Eh
Exchange energy change after final integration =      0.000018308 Eh
Total energy after final integration           =  -6337.677868726 Eh
Final COS-X integration done in                =    28.421 sec

----------------
TOTAL SCF ENERGY
----------------

Total Energy       :        -6337.67786873 Eh         -172456.98235 eV

Components:
Nuclear Repulsion  :         5088.06323537 Eh          138453.23946 eV
Electronic Energy  :       -11425.74110409 Eh         -310910.22181 eV
One Electron Energy:       -18945.90861974 Eh         -515544.38331 eV
Two Electron Energy:         7520.16751565 Eh          204634.16150 eV
Max COSX asymmetry :            0.00000326 Eh               0.00009 eV

Virial components:
Potential Energy   :       -12659.65312675 Eh         -344486.67494 eV
Kinetic Energy     :         6321.97525803 Eh          172029.69259 eV
Virial Ratio       :            2.00248381


DFT components:
N(Alpha)           :      160.999998199733 electrons
N(Beta)            :      159.999995797888 electrons
N(Total)           :      320.999993997621 electrons
E(X)               :     -341.579759989595 Eh       
E(C)               :      -14.732853196562 Eh       
E(XC)              :     -356.312613186157 Eh       
DFET-embed. en.    :        0.000000000000 Eh       

---------------
SCF CONVERGENCE
---------------

  Last Energy change         ...    2.9298e-08  Tolerance :   1.0000e-06
  Last MAX-Density change    ...    0.0000e+00  Tolerance :   1.0000e-05
  Last RMS-Density change    ...    0.0000e+00  Tolerance :   1.0000e-06
  Last DIIS Error            ...    2.3521e-05  Tolerance :   1.0000e-06

             **** THE GBW FILE WAS UPDATED (input_46.gbw) ****
             **** DENSITY input_46.scfp WAS UPDATED ****
             **** ENERGY FILE WAS UPDATED (input_46.en.tmp) ****
----------------------
UHF SPIN CONTAMINATION
----------------------

Warning: in a DFT calculation there is little theoretical justification to 
         calculate <S**2> as in Hartree-Fock theory. We will do it anyways
         but you should keep in mind that the values have only limited relevance

Expectation value of <S**2>     :     0.765565
Ideal value S*(S+1) for S=0.5   :     0.750000
Deviation                       :     0.015565

             **** THE GBW FILE WAS UPDATED (input_46.gbw) ****
             **** DENSITY input_46.scfp WAS UPDATED ****
----------------
ORBITAL ENERGIES
----------------
                 SPIN UP ORBITALS
  NO   OCC          E(Eh)            E(eV) 
   0   1.0000    -196.678974     -5351.9070 
   1   1.0000     -88.734693     -2414.5938 
   2   1.0000     -88.734586     -2414.5908 
   3   1.0000     -88.730428     -2414.4777 
   4   1.0000     -88.730376     -2414.4763 
   5   1.0000     -88.728829     -2414.4342 
   6   1.0000     -88.728673     -2414.4299 
   7   1.0000     -88.720709     -2414.2132 
   8   1.0000     -88.720591     -2414.2100 
   9   1.0000     -88.644334     -2412.1349 
  10   1.0000     -88.644254     -2412.1328 
  11   1.0000     -88.642989     -2412.0983 
  12   1.0000     -88.642415     -2412.0827 
  13   1.0000     -22.054398      -600.1307 
  14   1.0000     -18.894389      -514.1425 
  15   1.0000     -18.560814      -505.0654 
  16   1.0000     -18.555703      -504.9264 
  17   1.0000     -18.555572      -504.9228 
  18   1.0000     -10.074964      -274.1537 
  19   1.0000     -10.068388      -273.9748 
  20   1.0000     -10.063999      -273.8553 
  21   1.0000     -10.063936      -273.8536 
  22   1.0000     -10.060843      -273.7695 
  23   1.0000     -10.060737      -273.7666 
  24   1.0000     -10.054103      -273.5861 
  25   1.0000     -10.047871      -273.4165 
  26   1.0000     -10.046775      -273.3866 
  27   1.0000     -10.033919      -273.0368 
  28   1.0000     -10.020475      -272.6710 
  29   1.0000     -10.019504      -272.6446 
  30   1.0000     -10.019187      -272.6359 
  31   1.0000     -10.018366      -272.6136 
  32   1.0000      -7.787827      -211.9175 
  33   1.0000      -7.787725      -211.9148 
  34   1.0000      -7.784877      -211.8373 
  35   1.0000      -7.784734      -211.8334 
  36   1.0000      -7.784516      -211.8275 
  37   1.0000      -7.784483      -211.8266 
  38   1.0000      -7.775920      -211.5935 
  39   1.0000      -7.775829      -211.5911 
  40   1.0000      -7.699089      -209.5029 
  41   1.0000      -7.698883      -209.4973 
  42   1.0000      -7.697423      -209.4575 
  43   1.0000      -7.696967      -209.4451 
  44   1.0000      -5.752872      -156.5436 
  45   1.0000      -5.752770      -156.5408 
  46   1.0000      -5.749391      -156.4489 
  47   1.0000      -5.749350      -156.4478 
  48   1.0000      -5.749330      -156.4472 
  49   1.0000      -5.749321      -156.4470 
  50   1.0000      -5.749295      -156.4463 
  51   1.0000      -5.749198      -156.4436 
  52   1.0000      -5.744880      -156.3261 
  53   1.0000      -5.744874      -156.3260 
  54   1.0000      -5.744843      -156.3251 
  55   1.0000      -5.744729      -156.3220 
  56   1.0000      -5.742642      -156.2652 
  57   1.0000      -5.742535      -156.2623 
  58   1.0000      -5.741091      -156.2230 
  59   1.0000      -5.740945      -156.2190 
  60   1.0000      -5.740786      -156.2147 
  61   1.0000      -5.740688      -156.2121 
  62   1.0000      -5.740421      -156.2048 
  63   1.0000      -5.740392      -156.2040 
  64   1.0000      -5.737226      -156.1179 
  65   1.0000      -5.737131      -156.1153 
  66   1.0000      -5.730750      -155.9416 
  67   1.0000      -5.730666      -155.9393 
  68   1.0000      -5.664341      -154.1345 
  69   1.0000      -5.664185      -154.1303 
  70   1.0000      -5.662687      -154.0896 
  71   1.0000      -5.662206      -154.0765 
  72   1.0000      -5.657631      -153.9520 
  73   1.0000      -5.657463      -153.9474 
  74   1.0000      -5.656447      -153.9198 
  75   1.0000      -5.656226      -153.9137 
  76   1.0000      -5.656090      -153.9100 
  77   1.0000      -5.655628      -153.8975 
  78   1.0000      -5.654779      -153.8744 
  79   1.0000      -5.654295      -153.8612 
  80   1.0000      -2.448095       -66.6161 
  81   1.0000      -1.489396       -40.5285 
  82   1.0000      -1.477850       -40.2144 
  83   1.0000      -1.476889       -40.1882 
  84   1.0000      -0.730431       -19.8760 
  85   1.0000      -0.713808       -19.4237 
  86   1.0000      -0.695884       -18.9360 
  87   1.0000      -0.688722       -18.7411 
  88   1.0000      -0.653908       -17.7937 
  89   1.0000      -0.635675       -17.2976 
  90   1.0000      -0.634705       -17.2712 
  91   1.0000      -0.616386       -16.7727 
  92   1.0000      -0.614194       -16.7131 
  93   1.0000      -0.586646       -15.9635 
  94   1.0000      -0.582688       -15.8558 
  95   1.0000      -0.578510       -15.7420 
  96   1.0000      -0.578318       -15.7368 
  97   1.0000      -0.498658       -13.5692 
  98   1.0000      -0.498391       -13.5619 
  99   1.0000      -0.497170       -13.5287 
 100   1.0000      -0.494486       -13.4556 
 101   1.0000      -0.482507       -13.1297 
 102   1.0000      -0.480877       -13.0853 
 103   1.0000      -0.448735       -12.2107 
 104   1.0000      -0.446083       -12.1385 
 105   1.0000      -0.417867       -11.3707 
 106   1.0000      -0.413730       -11.2582 
 107   1.0000      -0.356510        -9.7011 
 108   1.0000      -0.351607        -9.5677 
 109   1.0000      -0.330952        -9.0057 
 110   1.0000      -0.327141        -8.9020 
 111   1.0000      -0.324393        -8.8272 
 112   1.0000      -0.320892        -8.7319 
 113   1.0000      -0.307205        -8.3595 
 114   1.0000      -0.303036        -8.2460 
 115   1.0000      -0.294050        -8.0015 
 116   1.0000      -0.287472        -7.8225 
 117   1.0000      -0.260409        -7.0861 
 118   1.0000      -0.258073        -7.0225 
 119   1.0000      -0.257588        -7.0093 
 120   1.0000      -0.255829        -6.9614 
 121   1.0000      -0.239727        -6.5233 
 122   1.0000      -0.235284        -6.4024 
 123   1.0000      -0.231226        -6.2920 
 124   1.0000      -0.227232        -6.1833 
 125   1.0000      -0.223258        -6.0752 
 126   1.0000      -0.220255        -5.9934 
 127   1.0000      -0.214356        -5.8329 
 128   1.0000      -0.209812        -5.7093 
 129   1.0000      -0.196604        -5.3499 
 130   1.0000      -0.190437        -5.1820 
 131   1.0000      -0.188252        -5.1226 
 132   1.0000      -0.185510        -5.0480 
 133   1.0000      -0.176514        -4.8032 
 134   1.0000      -0.165192        -4.4951 
 135   1.0000      -0.152113        -4.1392 
 136   1.0000      -0.145927        -3.9709 
 137   1.0000      -0.139438        -3.7943 
 138   1.0000      -0.137969        -3.7543 
 139   1.0000      -0.129832        -3.5329 
 140   1.0000      -0.128830        -3.5056 
 141   1.0000      -0.121010        -3.2928 
 142   1.0000      -0.117251        -3.1906 
 143   1.0000      -0.112797        -3.0693 
 144   1.0000      -0.102182        -2.7805 
 145   1.0000      -0.100433        -2.7329 
 146   1.0000      -0.097550        -2.6545 
 147   1.0000      -0.094707        -2.5771 
 148   1.0000      -0.078353        -2.1321 
 149   1.0000      -0.069377        -1.8879 
 150   1.0000      -0.056825        -1.5463 
 151   1.0000      -0.055278        -1.5042 
 152   1.0000      -0.050277        -1.3681 
 153   1.0000      -0.040245        -1.0951 
 154   1.0000      -0.037978        -1.0334 
 155   1.0000      -0.031265        -0.8508 
 156   1.0000      -0.028994        -0.7890 
 157   1.0000      -0.022936        -0.6241 
 158   1.0000      -0.020348        -0.5537 
 159   1.0000       0.017506         0.4764 
 160   1.0000       0.037865         1.0304 
 161   0.0000       0.137384         3.7384 
 162   0.0000       0.139070         3.7843 
 163   0.0000       0.161433         4.3928 
 164   0.0000       0.168279         4.5791 
 165   0.0000       0.168911         4.5963 
 166   0.0000       0.169723         4.6184 
 167   0.0000       0.171213         4.6589 
 168   0.0000       0.173009         4.7078 
 169   0.0000       0.174043         4.7360 
 170   0.0000       0.180303         4.9063 
 171   0.0000       0.189120         5.1462 
 172   0.0000       0.192695         5.2435 
 173   0.0000       0.197745         5.3809 
 174   0.0000       0.199426         5.4266 
 175   0.0000       0.202191         5.5019 
 176   0.0000       0.204652         5.5689 
 177   0.0000       0.208114         5.6631 
 178   0.0000       0.209986         5.7140 
 179   0.0000       0.212798         5.7905 
 180   0.0000       0.214847         5.8463 
 181   0.0000       0.217900         5.9294 
 182   0.0000       0.221705         6.0329 
 183   0.0000       0.226672         6.1680 
 184   0.0000       0.228763         6.2250 
 185   0.0000       0.230847         6.2817 
 186   0.0000       0.232759         6.3337 
 187   0.0000       0.236222         6.4279 
 188   0.0000       0.242290         6.5931 
 189   0.0000       0.243706         6.6316 
 190   0.0000       0.245974         6.6933 
 191   0.0000       0.247625         6.7382 
 192   0.0000       0.256926         6.9913 
 193   0.0000       0.259755         7.0683 
 194   0.0000       0.261097         7.1048 
 195   0.0000       0.268459         7.3051 
 196   0.0000       0.272054         7.4030 
 197   0.0000       0.273281         7.4364 
 198   0.0000       0.275045         7.4844 
 199   0.0000       0.280105         7.6220 
 200   0.0000       0.287473         7.8225 
 201   0.0000       0.297059         8.0834 
 202   0.0000       0.303796         8.2667 
 203   0.0000       0.306711         8.3460 
 204   0.0000       0.313578         8.5329 
 205   0.0000       0.318713         8.6726 
 206   0.0000       0.328757         8.9459 
 207   0.0000       0.330267         8.9870 
 208   0.0000       0.340916         9.2768 
 209   0.0000       0.345736         9.4080 
 210   0.0000       0.348875         9.4934 
 211   0.0000       0.350147         9.5280 
 212   0.0000       0.352124         9.5818 
 213   0.0000       0.354011         9.6331 
 214   0.0000       0.361888         9.8475 
 215   0.0000       0.370752        10.0887 
 216   0.0000       0.371590        10.1115 
 217   0.0000       0.378729        10.3057 
 218   0.0000       0.380133        10.3439 
 219   0.0000       0.385190        10.4815 
 220   0.0000       0.388223        10.5641 
 221   0.0000       0.391094        10.6422 
 222   0.0000       0.393340        10.7033 
 223   0.0000       0.399528        10.8717 
 224   0.0000       0.401137        10.9155 
 225   0.0000       0.401790        10.9333 
 226   0.0000       0.403663        10.9842 
 227   0.0000       0.406134        11.0515 
 228   0.0000       0.415031        11.2936 
 229   0.0000       0.423941        11.5360 
 230   0.0000       0.426279        11.5996 
 231   0.0000       0.427599        11.6356 
 232   0.0000       0.429507        11.6875 
 233   0.0000       0.432710        11.7746 
 234   0.0000       0.438361        11.9284 
 235   0.0000       0.438686        11.9373 
 236   0.0000       0.445460        12.1216 
 237   0.0000       0.450635        12.2624 
 238   0.0000       0.451983        12.2991 
 239   0.0000       0.459693        12.5089 
 240   0.0000       0.465143        12.6572 
 241   0.0000       0.469106        12.7650 
 242   0.0000       0.470412        12.8006 
 243   0.0000       0.472221        12.8498 
 244   0.0000       0.475046        12.9267 
 245   0.0000       0.478627        13.0241 
 246   0.0000       0.479949        13.0601 
 247   0.0000       0.485034        13.1984 
 248   0.0000       0.493860        13.4386 
 249   0.0000       0.494556        13.4575 
 250   0.0000       0.497519        13.5382 
 251   0.0000       0.502641        13.6776 
 252   0.0000       0.503205        13.6929 
 253   0.0000       0.507614        13.8129 
 254   0.0000       0.508156        13.8276 
 255   0.0000       0.514993        14.0137 
 256   0.0000       0.515502        14.0275 
 257   0.0000       0.522217        14.2103 
 258   0.0000       0.525698        14.3050 
 259   0.0000       0.526650        14.3309 
 260   0.0000       0.527425        14.3520 
 261   0.0000       0.529901        14.4193 
 262   0.0000       0.530322        14.4308 
 263   0.0000       0.533357        14.5134 
 264   0.0000       0.534677        14.5493 
 265   0.0000       0.536190        14.5905 
 266   0.0000       0.540990        14.7211 
 267   0.0000       0.544634        14.8202 
 268   0.0000       0.547238        14.8911 
 269   0.0000       0.551658        15.0114 
 270   0.0000       0.552436        15.0325 
 271   0.0000       0.558239        15.1904 
 272   0.0000       0.561959        15.2917 
 273   0.0000       0.567100        15.4316 
 274   0.0000       0.570488        15.5238 
 275   0.0000       0.571263        15.5449 
 276   0.0000       0.571606        15.5542 
 277   0.0000       0.577098        15.7036 
 278   0.0000       0.579036        15.7564 
 279   0.0000       0.582249        15.8438 
 280   0.0000       0.583261        15.8713 
 281   0.0000       0.586262        15.9530 
 282   0.0000       0.593640        16.1538 
 283   0.0000       0.595649        16.2084 
 284   0.0000       0.600917        16.3518 
 285   0.0000       0.605099        16.4656 
 286   0.0000       0.605892        16.4872 
 287   0.0000       0.613338        16.6898 
 288   0.0000       0.617511        16.8033 
 289   0.0000       0.619071        16.8458 
 290   0.0000       0.620119        16.8743 
 291   0.0000       0.630155        17.1474 
 292   0.0000       0.631174        17.1751 
 293   0.0000       0.633394        17.2355 
 294   0.0000       0.639756        17.4087 
 295   0.0000       0.639942        17.4137 
 296   0.0000       0.645924        17.5765 
 297   0.0000       0.648905        17.6576 
 298   0.0000       0.660104        17.9623 
 299   0.0000       0.665844        18.1185 
 300   0.0000       0.669853        18.2276 
 301   0.0000       0.683468        18.5981 
 302   0.0000       0.692735        18.8503 
 303   0.0000       0.698154        18.9977 
 304   0.0000       0.708779        19.2869 
 305   0.0000       0.715376        19.4664 
 306   0.0000       0.719041        19.5661 
 307   0.0000       0.725870        19.7519 
 308   0.0000       0.726923        19.7806 
 309   0.0000       0.735912        20.0252 
 310   0.0000       0.745470        20.2853 
 311   0.0000       0.749979        20.4080 
 312   0.0000       0.765171        20.8214 
 313   0.0000       0.770851        20.9759 
 314   0.0000       0.774228        21.0678 
 315   0.0000       0.776838        21.1388 
 316   0.0000       0.781265        21.2593 
 317   0.0000       0.791323        21.5330 
 318   0.0000       0.802726        21.8433 
 319   0.0000       0.804140        21.8818 
 320   0.0000       0.818689        22.2777 
 321   0.0000       0.827958        22.5299 
 322   0.0000       0.834356        22.7040 
 323   0.0000       0.835195        22.7268 
 324   0.0000       0.839913        22.8552 
 325   0.0000       0.851616        23.1736 
 326   0.0000       0.857064        23.3219 
 327   0.0000       0.859844        23.3975 
 328   0.0000       0.863194        23.4887 
 329   0.0000       0.867608        23.6088 
 330   0.0000       0.871330        23.7101 
 331   0.0000       0.873745        23.7758 
 332   0.0000       0.875272        23.8174 
 333   0.0000       0.876787        23.8586 
 334   0.0000       0.889845        24.2139 
 335   0.0000       0.895752        24.3747 
 336   0.0000       0.901063        24.5192 
 337   0.0000       0.908541        24.7227 
 338   0.0000       0.918502        24.9937 
 339   0.0000       0.926004        25.1979 
 340   0.0000       0.929791        25.3009 
 341   0.0000       0.938194        25.5296 
 342   0.0000       0.941263        25.6131 
 343   0.0000       0.942919        25.6581 
 344   0.0000       0.943309        25.6687 
 345   0.0000       0.945087        25.7171 
 346   0.0000       0.948069        25.7983 
 347   0.0000       0.954795        25.9813 
 348   0.0000       0.961545        26.1650 
 349   0.0000       0.976890        26.5825 
 350   0.0000       0.979602        26.6563 
 351   0.0000       0.984852        26.7992 
 352   0.0000       1.004780        27.3415 
 353   0.0000       1.006740        27.3948 
 354   0.0000       1.009362        27.4661 
 355   0.0000       1.011528        27.5251 
 356   0.0000       1.014233        27.5987 
 357   0.0000       1.016820        27.6691 
 358   0.0000       1.023251        27.8441 
 359   0.0000       1.036219        28.1970 
 360   0.0000       1.037614        28.2349 
 361   0.0000       1.045307        28.4443 
 362   0.0000       1.045572        28.4514 
 363   0.0000       1.049061        28.5464 
 364   0.0000       1.060164        28.8485 
 365   0.0000       1.062288        28.9063 
 366   0.0000       1.066371        29.0174 
 367   0.0000       1.069836        29.1117 
 368   0.0000       1.077237        29.3131 
 369   0.0000       1.079003        29.3612 
 370   0.0000       1.084932        29.5225 
 371   0.0000       1.097251        29.8577 
 372   0.0000       1.106021        30.0964 
 373   0.0000       1.107560        30.1382 
 374   0.0000       1.113710        30.3056 
 375   0.0000       1.115326        30.3496 
 376   0.0000       1.128606        30.7109 
 377   0.0000       1.132609        30.8199 
 378   0.0000       1.138092        30.9691 
 379   0.0000       1.146168        31.1888 
 380   0.0000       1.149997        31.2930 
 381   0.0000       1.162059        31.6212 
 382   0.0000       1.166258        31.7355 
 383   0.0000       1.182025        32.1645 
 384   0.0000       1.195036        32.5186 
 385   0.0000       1.203202        32.7408 
 386   0.0000       1.218678        33.1619 
 387   0.0000       1.231043        33.4984 
 388   0.0000       1.240186        33.7472 
 389   0.0000       1.247885        33.9567 
 390   0.0000       1.253298        34.1040 
 391   0.0000       1.265131        34.4260 
 392   0.0000       1.276356        34.7314 
 393   0.0000       1.285325        34.9755 
 394   0.0000       1.298555        35.3355 
 395   0.0000       1.301073        35.4040 
 396   0.0000       1.307319        35.5740 
 397   0.0000       1.319391        35.9025 
 398   0.0000       1.325713        36.0745 
 399   0.0000       1.336177        36.3592 
 400   0.0000       1.344517        36.5862 
 401   0.0000       1.350358        36.7451 
 402   0.0000       1.357723        36.9455 
 403   0.0000       1.399174        38.0735 
 404   0.0000       1.403858        38.2009 
 405   0.0000       1.420187        38.6453 
 406   0.0000       1.427518        38.8447 
 407   0.0000       1.428765        38.8787 
 408   0.0000       1.434265        39.0283 
 409   0.0000       1.436793        39.0971 
 410   0.0000       1.441805        39.2335 
 411   0.0000       1.449115        39.4324 
 412   0.0000       1.454610        39.5820 
 413   0.0000       1.476583        40.1799 
 414   0.0000       1.489998        40.5449 
 415   0.0000       1.493622        40.6435 
 416   0.0000       1.497829        40.7580 
 417   0.0000       1.502841        40.8944 
 418   0.0000       1.508081        41.0370 
 419   0.0000       1.514101        41.2008 
 420   0.0000       1.520613        41.3780 
 421   0.0000       1.540852        41.9287 
 422   0.0000       1.548983        42.1500 
 423   0.0000       1.549222        42.1565 
[...]
Total number of batches                      ...      303
Average number of points per batch           ...       58
Average number of grid points per atom       ...      444

Memory available               ... 812.6 MB
Memory needed per perturbation ...  48.1 MB
Perturbations treated per batch... 3
Number of batches              ... 1
     CP-SCF ITERATION   0:   3.9204e-02 (   6.2 sec   0/  3 done)
     CP-SCF ITERATION   1:   1.0732e-03 (   6.4 sec   0/  3 done)
     CP-SCF ITERATION   2:   1.1930e-04 (   6.5 sec   3/  3 done)
                    *** THE CP-SCF HAS CONVERGED ***

Forming final perturbed densities           ... done
Transforming perturbed density to AO basis  ... done

 Raw HFC matrix (all values in MHz): 
 -----------------------------------
                 0.0740               0.0803               0.0912
                 0.0804              -0.0317               0.0498
                 0.0909               0.0495              -0.0200

 A(FC)           0.0073               0.0073               0.0073
 A(SD)          -0.0826              -0.0842               0.1669
 A(ORB+DIA)      0.0005               0.0010              -0.0011    A(PC) =   0.0001
 A(ORB)          0.0005               0.0011              -0.0011    A(PC) =   0.0002
 A(DIA)         -0.0000              -0.0000               0.0000    A(PC) =  -0.0000
             ----------           ----------           ----------
 A(Tot)         -0.0748              -0.0759               0.1730    A(iso)=    0.0074
 Orientation: 
  X           0.6199183            0.1236917            0.7748559
  Y          -0.6497520            0.6345471            0.4185359
  Z          -0.4399132           -0.7629222            0.4737363

Notes:  (1) The A matrix conforms to the "SAI" spin Hamiltonian convention.
        (2) Tensor is right-handed.

 Raw EFG matrix (all values in a.u.**-3):
 -----------------------------------
            -0.0930       0.0867       0.0660
             0.0867       0.0880       0.1728
             0.0660       0.1728       0.0050

 V(El)       0.5434       0.7621      -1.3054
 V(Nuc)     -0.6696      -0.8939       1.5635
         ----------   ----------   ----------
 V(Tot)     -0.1262      -0.1319       0.2581 
 Orientation: 
  X      -0.9014971    0.3152961    0.2964647
  Y       0.0160541   -0.6601818    0.7509343
  Z       0.4324872    0.6817246    0.5900902

Note: Tensor is right-handed


 Quadrupole tensor eigenvalues (in MHz;Q= 0.0029 I=  1.0)
  e**2qQ            =     0.173312 MHz 
  e**2qQ/(4I*(2I-1))=     0.043328 MHz 
  eta               =     0.021900
  NOTE: the diagonal representation of the SH term I*Q*I = e**2qQ/(4I(2I-1))*[-(1-eta),-(1+eta),2]

 RHO(0)=      0.433500820 a.u.**-3

 -----------------------------------------------------------
 Nucleus  39H : A:ISTP=    1 I=  0.5 P=533.5514 MHz/au**3
                Q:ISTP=    2 I=  1.0 Q=  0.0029 barn     
 -----------------------------------------------------------
 Solving for nuclear perturbation:
Forming RHS of the CP-SCF equations         ... 
Calc. nucleus orbit integrals (SHARK)       ... done

------------------------------------------------------------------------------
                           ORCA CP-SCF CALCULATION
------------------------------------------------------------------------------

Input orbitals are from        ... input_46.gbw
Input Perturbation             ... input_46.pin.tmp
Wavefunction output            ... input_46.pout.tmp
Perturbation mode              ... Imaginary perturbation
Solver                         ... POPLE
Max. number of iterations      ... 64
Convergence tolerance          ... 1.000e-03
Integral handling              ... Direct
DFT GridXC                     ... 1
COSX GridX                     ... 1
COSX IntAccX                   ... 3.067
COSX Algorithm                 ... Auto
Number of perturbations        ... 3
Number of operators            ... 2
Orbital ranges used for CP-SCF:
 Operator 0:  Orbitals   0...160  to 161...680
 Operator 1:  Orbitals   0...159  to 160...680
Variables per perturbation     ... 167080
DFT calculation                         ... on
XC functional terms                     ... off
Hybrid DFT                              ... on
   Exchange mixing (SCF)                ...  0.200
   Exchange mixing (CP-SCF)             ...  0.200
   GGA exch. scaling(SCF)               ...  0.720
   GGA exch. scaling (CP-SCF)           ...  0.720
   GGA corr. scaling (SCF)              ...  0.810
   GGA corr. scaling (CP-SCF)           ...  0.810

CP-SCF GRID
-----------

General Integration Accuracy     IntAcc      ... 3.467
Radial Grid Type                 RadialGrid  ... OptM3 with GC (2021)
Angular Grid (max. ang.)         AngularGrid ... 1 (Lebedev-50)
Angular grid pruning method      GridPruning ... 4 (adaptive)
Weight generation scheme         WeightScheme... Becke
Basis function cutoff            BFCut       ... 1.0000e-10
Integration weight cutoff        WCut        ... 1.0000e-14
Angular grids for H and He will be reduced by one unit
Partially contracted basis set               ... off
Rotationally invariant grid construction     ... off

Total number of grid points                  ...    39300
Total number of batches                      ...      635
Average number of points per batch           ...       61
Average number of grid points per atom       ...      982

CP-SCF GRIDX
------------

General Integration Accuracy     IntAcc      ... 3.067
Radial Grid Type                 RadialGrid  ... OptM3 with GC (2021)
Angular Grid (max. ang.)         AngularGrid ... 1 (Lebedev-50)
Angular grid pruning method      GridPruning ... 4 (adaptive)
Weight generation scheme         WeightScheme... Becke
Basis function cutoff            BFCut       ... 1.0000e-10
Integration weight cutoff        WCut        ... 1.0000e-14
Angular grids for H and He will be reduced by one unit
Partially contracted basis set               ... on
Rotationally invariant grid construction     ... off

Total number of grid points                  ...    17780
Total number of batches                      ...      303
Average number of points per batch           ...       58
Average number of grid points per atom       ...      444

Memory available               ... 809.8 MB
Memory needed per perturbation ...  48.1 MB
Perturbations treated per batch... 3
Number of batches              ... 1
     CP-SCF ITERATION   0:   4.3695e-02 (   6.2 sec   0/  3 done)
     CP-SCF ITERATION   1:   1.5178e-03 (   6.4 sec   0/  3 done)
     CP-SCF ITERATION   2:   1.5722e-04 (   6.5 sec   3/  3 done)
                    *** THE CP-SCF HAS CONVERGED ***

Forming final perturbed densities           ... done
Transforming perturbed density to AO basis  ... done

 Raw HFC matrix (all values in MHz): 
 -----------------------------------
                 0.1289               0.1351               0.1114
                 0.1353              -0.0655               0.0538
                 0.1111               0.0538              -0.0845

 A(FC)          -0.0073              -0.0073              -0.0073
 A(SD)          -0.1239              -0.1296               0.2535
 A(ORB+DIA)      0.0017               0.0008              -0.0017    A(PC) =   0.0003
 A(ORB)          0.0018               0.0009              -0.0017    A(PC) =   0.0003
 A(DIA)         -0.0000              -0.0001               0.0000    A(PC) =  -0.0000
             ----------           ----------           ----------
 A(Tot)         -0.1295              -0.1361               0.2446    A(iso)=   -0.0070
 Orientation: 
  X           0.0714272            0.5468451           -0.8341814
  Y           0.5491557           -0.7197129           -0.4247839
  Z          -0.8326621           -0.4277544           -0.3517102

Notes:  (1) The A matrix conforms to the "SAI" spin Hamiltonian convention.
        (2) Tensor is right-handed.

 Raw EFG matrix (all values in a.u.**-3):
 -----------------------------------
            -0.1113      -0.0342       0.0824
            -0.0342      -0.0792      -0.1304
             0.0824      -0.1304       0.1905

 V(El)       0.7229       0.4052      -1.1281
 V(Nuc)     -0.8543      -0.5382       1.3926
         ----------   ----------   ----------
 V(Tot)     -0.1314      -0.1330       0.2644 
 Orientation: 
  X      -0.5801849    0.7810577   -0.2309424
  Y       0.6923694    0.6222907    0.3652107
  Z       0.4289639    0.0519923   -0.9018241

Note: Tensor is right-handed


 Quadrupole tensor eigenvalues (in MHz;Q= 0.0029 I=  1.0)
  e**2qQ            =     0.177558 MHz 
  e**2qQ/(4I*(2I-1))=     0.044389 MHz 
  eta               =     0.005977
  NOTE: the diagonal representation of the SH term I*Q*I = e**2qQ/(4I(2I-1))*[-(1-eta),-(1+eta),2]

 RHO(0)=      0.431767822 a.u.**-3

 -----------------------------------------------------------
 Nucleus   0V : A:ISTP=   51 I=  3.5 P=140.5173 MHz/au**3
                Q:ISTP=   51 I=  3.5 Q= -0.0430 barn     
 -----------------------------------------------------------
 Solving for nuclear perturbation:
Forming RHS of the CP-SCF equations         ... 
Calc. nucleus orbit integrals (SHARK)       ... done

------------------------------------------------------------------------------
                           ORCA CP-SCF CALCULATION
------------------------------------------------------------------------------

Input orbitals are from        ... input_46.gbw
Input Perturbation             ... input_46.pin.tmp
Wavefunction output            ... input_46.pout.tmp
Perturbation mode              ... Imaginary perturbation
Solver                         ... POPLE
Max. number of iterations      ... 64
Convergence tolerance          ... 1.000e-03
Integral handling              ... Direct
DFT GridXC                     ... 1
COSX GridX                     ... 1
COSX IntAccX                   ... 3.067
COSX Algorithm                 ... Auto
Number of perturbations        ... 3
Number of operators            ... 2
Orbital ranges used for CP-SCF:
 Operator 0:  Orbitals   0...160  to 161...680
 Operator 1:  Orbitals   0...159  to 160...680
Variables per perturbation     ... 167080
DFT calculation                         ... on
XC functional terms                     ... off
Hybrid DFT                              ... on
   Exchange mixing (SCF)                ...  0.200
   Exchange mixing (CP-SCF)             ...  0.200
   GGA exch. scaling(SCF)               ...  0.720
   GGA exch. scaling (CP-SCF)           ...  0.720
   GGA corr. scaling (SCF)              ...  0.810
   GGA corr. scaling (CP-SCF)           ...  0.810

CP-SCF GRID
-----------

General Integration Accuracy     IntAcc      ... 3.467
Radial Grid Type                 RadialGrid  ... OptM3 with GC (2021)
Angular Grid (max. ang.)         AngularGrid ... 1 (Lebedev-50)
Angular grid pruning method      GridPruning ... 4 (adaptive)
Weight generation scheme         WeightScheme... Becke
Basis function cutoff            BFCut       ... 1.0000e-10
Integration weight cutoff        WCut        ... 1.0000e-14
Angular grids for H and He will be reduced by one unit
Partially contracted basis set               ... off
Rotationally invariant grid construction     ... off

Total number of grid points                  ...    39300
Total number of batches                      ...      635
Average number of points per batch           ...       61
Average number of grid points per atom       ...      982

CP-SCF GRIDX
------------

General Integration Accuracy     IntAcc      ... 3.067
Radial Grid Type                 RadialGrid  ... OptM3 with GC (2021)
Angular Grid (max. ang.)         AngularGrid ... 1 (Lebedev-50)
Angular grid pruning method      GridPruning ... 4 (adaptive)
Weight generation scheme         WeightScheme... Becke
Basis function cutoff            BFCut       ... 1.0000e-10
Integration weight cutoff        WCut        ... 1.0000e-14
Angular grids for H and He will be reduced by one unit
Partially contracted basis set               ... on
Rotationally invariant grid construction     ... off

Total number of grid points                  ...    17780
Total number of batches                      ...      303
Average number of points per batch           ...       58
Average number of grid points per atom       ...      444

Memory available               ... 807.0 MB
Memory needed per perturbation ...  48.1 MB
Perturbations treated per batch... 3
Number of batches              ... 1
     CP-SCF ITERATION   0:   1.2233e+01 (   6.7 sec   0/  3 done)
     CP-SCF ITERATION   1:   1.9680e+00 (   6.4 sec   0/  3 done)
     CP-SCF ITERATION   2:   3.3764e-01 (   6.4 sec   0/  3 done)
     CP-SCF ITERATION   3:   3.9487e-02 (   6.4 sec   0/  3 done)
     CP-SCF ITERATION   4:   7.4826e-03 (   6.4 sec   0/  3 done)
     CP-SCF ITERATION   5:   2.0920e-03 (   6.5 sec   0/  3 done)
     CP-SCF ITERATION   6:   3.5034e-04 (   6.5 sec   3/  3 done)
                    *** THE CP-SCF HAS CONVERGED ***

Forming final perturbed densities           ... done
Transforming perturbed density to AO basis  ... done

 Raw HFC matrix (all values in MHz): 
 -----------------------------------
              -135.4424             -42.2479              99.8535
               -42.5317            -116.6141              87.3665
               100.8509              87.6785            -304.2718

 A(FC)        -173.6105            -173.6105            -173.6105
 A(SD)          99.1122              92.2109            -191.3232
 A(ORB+DIA)     -6.7653              -7.5850             -21.1465    A(PC) = -11.8323
 A(ORB)         -6.7649              -7.5855             -21.1464    A(PC) = -11.8323
 A(DIA)         -0.0004               0.0005              -0.0002    A(PC) =  -0.0000
             ----------           ----------           ----------
 A(Tot)        -81.2636             -88.9845            -386.0801    A(iso)= -185.4428
 Orientation: 
  X           0.3071679            0.8646275           -0.3975766
  Y          -0.9247148            0.1724757           -0.3393446
  Z          -0.2248344            0.4718807            0.8525128

Notes:  (1) The A matrix conforms to the "SAI" spin Hamiltonian convention.
        (2) Tensor is right-handed.

 Raw EFG matrix (all values in a.u.**-3):
 -----------------------------------
            -0.1282      -0.0016      -0.1235
            -0.0016      -0.0052      -0.1010
            -0.1235      -0.1010       0.1334

 V(El)       0.2055      -0.4891       0.2836
 V(Nuc)     -0.2402       0.3023      -0.0621
         ----------   ----------   ----------
 V(Tot)     -0.0347      -0.1868       0.2215 
 Orientation: 
  X       0.3664962    0.8787870   -0.3056370
  Y      -0.8914736    0.2376221   -0.3857598
  Z      -0.2663746    0.4138468    0.8705030

Note: Tensor is right-handed


 Quadrupole tensor eigenvalues (in MHz;Q=-0.0430 I=  3.5)
  e**2qQ            =    -2.237869 MHz 
  e**2qQ/(4I*(2I-1))=    -0.026641 MHz 
  eta               =     0.686753
  NOTE: the diagonal representation of the SH term I*Q*I = e**2qQ/(4I(2I-1))*[-(1-eta),-(1+eta),2]

 RHO(0)=   8115.205503912 a.u.**-3


--------------------------------------------------------------------------------
----------------------------------------------------------------------------
                           ORCA EULER ANGLE PROGRAM
----------------------------------------------------------------------------

Only g-tensor available        -->  using g-tensor as reference tensor

Reference tensor               ...  g

g-tensor ordering              ...  |g_min> --> |gx>
                                    |g_mid> --> |gy>
                                    |g_max> --> |gz>

A- and EFG-tensor ordering     ...  the axes |Ax>, |Qx>, |Ay>, etc. are assigned
                                    such that the Euler rotation is minimal. You
                                    can find the respective eigenvalues as Ax,
                                    EFGx, Ay, etc. in the tables below.
                                    The relation of |Ax>, |Ay>,  etc. to Amin, Amid, etc.
                                    (as printed in the ORCA EPR/NMR CALCULATION Output)
                                    is obtained in the detailed printout.

Euler rotation around          ...  z - y - z
   First rotation              -->  by alpha around z
   Second rotation             -->  by beta around y'
   Third rotation              -->  by gamma around z''
   Positive / Negative angle   -->  clockwise / counterclockwise rotation

Plot EFG-tensors                    (-)
Plot HFC-tensors                    (-)
Detailed Printout                   (-)

-------------------------------------------------------------------------
          Euler rotation of hyperfine tensor to g-tensor
-------------------------------------------------------------------------

-------------------------------------------------------------------
 Atom  |   Alpha    Beta    Gamma   |   Ax       Ay       Az 
       |          [degrees]         |           [MHz]         
-------------------------------------------------------------------
 25H     -128.7      7.2    102.8      -0.13     0.26    -0.13
 26H      -39.3     15.7     17.8      -0.08     0.16    -0.08
 27H       43.4      4.0    -68.2      -0.07     0.13    -0.07
 28H       85.1      2.7   -100.3      -0.07     0.13    -0.07
 29H      106.1     15.9   -126.9      -0.08     0.16    -0.08
 30H       63.1     12.5    -88.7      -0.13     0.26    -0.13
 34H      -27.4     12.3     21.8      -0.13     0.25    -0.14
 35H      -30.4     17.5     31.4      -0.07     0.17    -0.07
 36H      148.8      7.7   -140.7      -0.08     0.15    -0.08
 37H       12.6     21.8    -13.5      -0.06     0.14    -0.06
 38H      141.8     29.1   -141.5      -0.08     0.17    -0.07
 39H      138.8     23.5   -145.0      -0.13     0.24    -0.14
  0V      106.2      2.8    -99.6    -386.08   -88.98   -81.26
-------------------------------------------------------------------


-------------------------------------------------------------------------------
    Euler rotation of Electric Field Gradient (EFG) tensor to g-tensor
-------------------------------------------------------------------------------

-------------------------------------------------------------------
 Atom  |   Alpha    Beta    Gamma  |   EFGx     EFGy     EFGz
       |          [degrees]        |         [a.u.**-3]       
-------------------------------------------------------------------
 25H       -0.7     33.5     34.1     -0.14     0.28    -0.14
 26H      146.5     37.1   -116.0     -0.14    -0.15     0.29
 27H      129.8      2.8   -116.4      0.28    -0.14    -0.14
 28H      149.8      2.7   -119.1     -0.14     0.28    -0.14
 29H      -34.1     31.8     64.8     -0.14    -0.15     0.29
 30H      175.5     38.3   -142.6     -0.14     0.28    -0.14
 34H      -54.6     15.3     28.2      0.26    -0.13    -0.13
 35H       46.5     47.4    -81.0     -0.13    -0.13     0.26
 36H      104.0      5.9   -128.3      0.25    -0.13    -0.12
 37H       88.6      5.8   -128.1     -0.13     0.25    -0.12
 38H     -146.9     40.1    109.1     -0.13    -0.13     0.26
 39H      115.9     25.8   -142.7      0.26    -0.13    -0.13
  0V      130.3      6.8   -128.4      0.22    -0.19    -0.03
-------------------------------------------------------------------


Maximum memory used throughout the entire EPRNMR-calculation: 318.7 MB

Timings for individual modules:

Sum of individual times         ...     3988.948 sec (=  66.482 min)
GTO integral calculation        ...        1.597 sec (=   0.027 min)   0.0 %
Spin-Orbit-Coupling Matrices    ...       13.084 sec (=   0.218 min)   0.3 %
SCF iterations                  ...      247.983 sec (=   4.133 min)   6.2 %
EPR/NMR calculation             ...     3726.284 sec (=  62.105 min)  93.4 %
                             ****ORCA TERMINATED NORMALLY****
TOTAL RUN TIME: 0 days 1 hours 6 minutes 30 seconds 146 msec
