
                                 *****************
                                 * O   R   C   A *
                                 *****************

                                            #,                                       
                                            ###                                      
                                            ####                                     
                                            #####                                    
                                            ######                                   
                                           ########,                                 
                                     ,,################,,,,,                         
                               ,,#################################,,                 
                          ,,##########################################,,             
                       ,#########################################, ''#####,          
                    ,#############################################,,   '####,        
                  ,##################################################,,,,####,       
                ,###########''''           ''''###############################       
              ,#####''   ,,,,##########,,,,          '''####'''          '####       
            ,##' ,,,,###########################,,,                        '##       
           ' ,,###''''                  '''############,,,                           
         ,,##''                                '''############,,,,        ,,,,,,###''
      ,#''                                            '''#######################'''  
     '                                                          ''''####''''         
             ,#######,   #######,   ,#######,      ##                                
            ,#'     '#,  ##    ##  ,#'     '#,    #''#        ######   ,####,        
            ##       ##  ##   ,#'  ##            #'  '#       #        #'  '#        
            ##       ##  #######   ##           ,######,      #####,   #    #        
            '#,     ,#'  ##    ##  '#,     ,#' ,#      #,         ##   #,  ,#        
             '#######'   ##     ##  '#######'  #'      '#     #####' # '####'        



                  #######################################################
                  #                        -***-                        #
                  #          Department of theory and spectroscopy      #
                  #    Directorship and core code : Frank Neese         #
                  #        Max Planck Institute fuer Kohlenforschung    #
                  #                Kaiser Wilhelm Platz 1               #
                  #                 D-45470 Muelheim/Ruhr               #
                  #                      Germany                        #
                  #                                                     #
                  #                  All rights reserved                #
                  #                        -***-                        #
                  #######################################################


                         Program Version 5.0.4 -  RELEASE  -


 With contributions from (in alphabetic order):
   Daniel Aravena         : Magnetic Suceptibility
   Michael Atanasov       : Ab Initio Ligand Field Theory (pilot matlab implementation)
   Alexander A. Auer      : GIAO ZORA, VPT2 properties, NMR spectrum
   Ute Becker             : Parallelization
   Giovanni Bistoni       : ED, misc. LED, open-shell LED, HFLD
   Martin Brehm           : Molecular dynamics
   Dmytro Bykov           : SCF Hessian
   Vijay G. Chilkuri      : MRCI spin determinant printing, contributions to CSF-ICE
   Dipayan Datta          : RHF DLPNO-CCSD density
   Achintya Kumar Dutta   : EOM-CC, STEOM-CC
   Dmitry Ganyushin       : Spin-Orbit,Spin-Spin,Magnetic field MRCI
   Miquel Garcia          : C-PCM and meta-GGA Hessian, CC/C-PCM, Gaussian charge scheme
   Yang Guo               : DLPNO-NEVPT2, F12-NEVPT2, CIM, IAO-localization
   Andreas Hansen         : Spin unrestricted coupled pair/coupled cluster methods
   Benjamin Helmich-Paris : MC-RPA, TRAH-SCF, COSX integrals
   Lee Huntington         : MR-EOM, pCC
   Robert Izsak           : Overlap fitted RIJCOSX, COSX-SCS-MP3, EOM
   Marcus Kettner         : VPT2
   Christian Kollmar      : KDIIS, OOCD, Brueckner-CCSD(T), CCSD density, CASPT2, CASPT2-K
   Simone Kossmann        : Meta GGA functionals, TD-DFT gradient, OOMP2, MP2 Hessian
   Martin Krupicka        : Initial AUTO-CI
   Lucas Lang             : DCDCAS
   Marvin Lechner         : AUTO-CI (C++ implementation), FIC-MRCC
   Dagmar Lenk            : GEPOL surface, SMD
   Dimitrios Liakos       : Extrapolation schemes; Compound Job, initial MDCI parallelization
   Dimitrios Manganas     : Further ROCIS development; embedding schemes
   Dimitrios Pantazis     : SARC Basis sets
   Anastasios Papadopoulos: AUTO-CI, single reference methods and gradients
   Taras Petrenko         : DFT Hessian,TD-DFT gradient, ASA, ECA, R-Raman, ABS, FL, XAS/XES, NRVS
   Peter Pinski           : DLPNO-MP2, DLPNO-MP2 Gradient
   Christoph Reimann      : Effective Core Potentials
   Marius Retegan         : Local ZFS, SOC
   Christoph Riplinger    : Optimizer, TS searches, QM/MM, DLPNO-CCSD(T), (RO)-DLPNO pert. Triples
   Tobias Risthaus        : Range-separated hybrids, TD-DFT gradient, RPA, STAB
   Michael Roemelt        : Original ROCIS implementation
   Masaaki Saitow         : Open-shell DLPNO-CCSD energy and density
   Barbara Sandhoefer     : DKH picture change effects
   Avijit Sen             : IP-ROCIS
   Kantharuban Sivalingam : CASSCF convergence, NEVPT2, FIC-MRCI
   Bernardo de Souza      : ESD, SOC TD-DFT
   Georgi Stoychev        : AutoAux, RI-MP2 NMR, DLPNO-MP2 response
   Willem Van den Heuvel  : Paramagnetic NMR
   Boris Wezisla          : Elementary symmetry handling
   Frank Wennmohs         : Technical directorship


 We gratefully acknowledge several colleagues who have allowed us to
 interface, adapt or use parts of their codes:
   Stefan Grimme, W. Hujo, H. Kruse, P. Pracht,  : VdW corrections, initial TS optimization,
                  C. Bannwarth, S. Ehlert          DFT functionals, gCP, sTDA/sTD-DF
   Ed Valeev, F. Pavosevic, A. Kumar             : LibInt (2-el integral package), F12 methods
   Garnet Chan, S. Sharma, J. Yang, R. Olivares  : DMRG
   Ulf Ekstrom                                   : XCFun DFT Library
   Mihaly Kallay                                 : mrcc  (arbitrary order and MRCC methods)
   Jiri Pittner, Ondrej Demel                    : Mk-CCSD
   Frank Weinhold                                : gennbo (NPA and NBO analysis)
   Christopher J. Cramer and Donald G. Truhlar   : smd solvation model
   Lars Goerigk                                  : TD-DFT with DH, B97 family of functionals
   V. Asgeirsson, H. Jonsson                     : NEB implementation
   FAccTs GmbH                                   : IRC, NEB, NEB-TS, DLPNO-Multilevel, CI-OPT
                                                   MM, QMMM, 2- and 3-layer-ONIOM, Crystal-QMMM,
                                                   LR-CPCM, SF, NACMEs, symmetry and pop. for TD-DFT,
                                                   nearIR, NL-DFT gradient (VV10), updates on ESD,
                                                   ML-optimized integration grids
   S Lehtola, MJT Oliveira, MAL Marques          : LibXC Library
   Liviu Ungur et al                             : ANISO software


 Your calculation uses the libint2 library for the computation of 2-el integrals
 For citations please refer to: http://libint.valeyev.net

 Your ORCA version has been built with support for libXC version: 5.1.0
 For citations please refer to: https://tddft.org/programs/libxc/

 This ORCA versions uses:
   CBLAS   interface :  Fast vector & matrix operations
   LAPACKE interface :  Fast linear algebra routines
   SCALAPACK package :  Parallel linear algebra routines
   Shared memory     :  Shared parallel matrices
   BLAS/LAPACK       :  OpenBLAS 0.3.15  USE64BITINT DYNAMIC_ARCH NO_AFFINITY Prescott SINGLE_THREADED
        Core in use  :  Prescott
   Copyright (c) 2011-2014, The OpenBLAS Project


================================================================================

----- Orbital basis set information -----
Your calculation utilizes the basis: TZVP 

The basis set includes element-specific modifications.

Your calculation utilizes the basis: CP(PPP) 

----- AuxJ basis set information -----
Your calculation utilizes the auxiliary basis: def2/J
   F. Weigend, Phys. Chem. Chem. Phys. 8, 1057 (2006).

================================================================================
                                        WARNINGS
                       Please study these warnings very carefully!
================================================================================


WARNING: your system is open-shell and RHF/RKS was chosen
  ===> : WILL SWITCH to UHF/UKS


INFO   : the flag for use of the SHARK integral package has been found!

================================================================================
                                       INPUT FILE
================================================================================
NAME = input_16.inp
|  1> ! nofrozencore ReducedPop printbasis
|  2> ! B3LYP TZVP
|  3> 
|  4> %basis
|  5> newgto V "CP(PPP)" end
|  6> end
|  7> 
|  8> %pal
|  9> nprocs 8
| 10> end
| 11> 
| 12> % sym SymThresh 1e-2 end
| 13> * xyz -2 2 
| 14> V -0.6533220242005814 -0.5740893854028356 0.6784529071337593
| 15> S -2.1110345253202762 1.3572286997415304 0.5675661919571249
| 16> S -1.226285871690914 -0.9522214372113174 -1.7456888489096414
| 17> S 0.7493870136040116 0.5718020123550648 2.3330044637075513
| 18> S 1.5053369373547734 -1.6182515731944136 -0.03291908630502099
| 19> O -1.5335617996466644 -1.5332041759482433 1.6060278885092103
| 20> C -0.06051903932417296 -2.193273548982372 -2.215906800498286
| 21> C 1.0583233505825824 -2.4586883514688846 -1.5170791517702282
| 22> C -1.3840647940983444 2.2826202514251115 1.8656577088821706
| 23> C -0.27202487156467975 1.977860490448792 2.560750481698849
| 24> S -0.29237632950307985 -3.152894190161393 -3.7311331323695547
| 25> S 2.1608953463505833 -3.705844108101779 -2.211847693274952
| 26> S 0.2460476860007075 3.1627181631031007 3.7957394154143995
| 27> S -2.1804049365380282 3.830798053046657 2.2540029609342898
| 28> C 1.2321599503546137 -4.062520489386783 -3.679309483866327
| 29> C -1.0375779938051015 4.33149313539499 3.4917804198423554
| 30> C 1.6401286772135935 -4.945568287798499 -4.651562993711512
| 31> C -1.138308137331314 5.511034470042171 4.160309669906956
| 32> S 0.6549531947074317 -5.333038539733835 -6.091809309971311
| 33> S 3.175929800848597 -5.858529810010233 -4.565031741858239
| 34> S -2.456212931768611 6.651955170749931 3.8140031252724373
| 35> S 0.07464013683597374 5.9473705480616985 5.37994077078711
| 36> C 0.7225551975592132 7.459138701272489 4.540676700501936
| 37> C -1.4315872970693861 8.100114452099344 3.2822357326948537
| 38> C -0.36342304001899384 8.512473334486174 4.299913851081345
| 39> H 1.189633105807135 7.1535820251596425 3.600213603213364
| 40> H 1.5012593089434219 7.856459271428866 5.1975890596495935
| 41> H 0.11847606100942724 9.429747846740344 3.9289862130185105
| 42> H -0.842353018976283 8.759050720162428 5.255098057074636
| 43> H -2.1423316410328184 8.917849092595329 3.1300471100849756
| 44> H -0.9740930316785907 7.860915239224422 2.3170713760008494
| 45> C 2.4859023833422143 -7.575384014862039 -4.425925345448363
| 46> C 0.3044531542634361 -7.114627858855245 -5.709385988824095
| 47> C 1.5622855002838545 -7.977531111639849 -5.579166641127519
| 48> H -0.2907940955831671 -7.150064341542245 -4.793444205343382
| 49> H -0.3172410363339176 -7.472620125254362 -6.534288208972596
| 50> H 2.1215009938466753 -7.947662746210439 -6.521657305607472
| 51> H 1.248715225698898 -9.02038533173857 -5.418220820703363
| 52> H 3.358852401095899 -8.232399614478227 -4.392572183816796
| 53> H 1.9659736865157922 -7.650681951776878 -3.467729090822125
| 54> * 
| 55> 
| 56> % eprnmr
| 57> gtensor true
| 58> Nuclei = all H {aiso,adip,aorb,fgrad,rho}
| 59> Nuclei = all V {aiso,adip,aorb,fgrad,rho}
| 60> end
| 61> 
| 62>                          ****END OF INPUT****
================================================================================

------------------------------------------------------------------------------
                            SYMMETRY HANDLING SETUP
------------------------------------------------------------------------------

------------------
SYMMETRY DETECTION
------------------
The point group will now be determined using a tolerance of 1.0000e-02.
Splitting atom subsets according to nuclear charge, mass and basis set.
Splitting atom subsets according to distance from the molecule's center.
Identifying relative distance patterns of the atoms.
Splitting atom subsets according to atoms' relative distance patterns.
Bring atoms of each subset into input order.
The molecule is neither linear nor planar.
There is at least one atom subset not centered around the molecule's center.
The molecule does not have a center of inversion.
Analyzing the first atom subset for its symmetry.
The subset is an off-center atom pair.
Testing point group C2v.
Test failed.
Testing point group C2.
Test failed.
Testing point group Cs.
Test failed.
Testing point group Cs.
Test failed.
No testing is needed for point group C1.
This point group has been found:    C1
Largest non-degenerate subgroup:    C1


Mass-centered symmetry-perfected Cartesians (point group C1):

Atom          Symmetry-perfected Cartesians (x, y, z; au)
  0      -1.230651121649   -1.084348458424    1.276038421570
  1      -3.985328530759    2.565313799988    1.066492897996
  2      -2.313395878044   -1.798914478800   -3.304925607155
  3       1.420084805378    1.081072462555    4.402687737947
  4       2.848623132225   -3.057529032746   -0.068259825371
  5      -2.894063229426   -2.896812743548    3.028901105046
  6      -0.110415828862   -4.144163087972   -4.193508758911
  7       2.003889875084   -4.645724376560   -2.872915888003
  8      -2.611554831099    4.314050399314    3.519530361750
  9      -0.510103927523    3.738137914430    4.833065340042
 10      -0.548562609453   -5.957583292258   -7.056871557054
 11       4.087448990017   -7.002507202940   -4.185838157911
 12       0.468911323776    5.977194423422    7.166856203188
 13      -4.116419609758    7.239682450995    4.253396533537
 14       2.332393440705   -7.676527882006   -6.958939054123
 15      -1.956789669526    8.185859033235    6.592456945615
 16       3.103342605673   -9.345246384166   -8.796231920474
 17      -2.147142054221   10.414869119358    7.855794140752
 18       1.241630749883  -10.077459045366  -11.517903023594
 19       6.005586125512  -11.070493631955   -8.632711552446
 20      -4.637621186289   12.570896784217    7.201369613009
 21       0.144997998568   11.239424809164   10.160562905829
 22       1.369380021377   14.096252596717    8.574583658950
 23      -2.701359346913   15.307521224264    6.196474874088
 24      -0.682821435044   16.086766580865    8.119607810322
 25       2.252029351171   13.518834160472    6.797365966015
 26       2.840917531252   14.847079661686    9.815968111727
 27       0.227835890083   17.820164198651    7.418656158881
 28      -1.587867932598   16.552730310611    9.924644367097
 29      -4.044471508237   16.852815745022    5.908880056656
 30      -1.836820477484   14.855500220481    4.372578565714
 31       4.701623281528  -14.314877890996   -8.369838559754
 32       0.579281663516  -13.444174941624  -10.795227679401
 33       2.956240319882  -15.074825769457  -10.549148774916
 34      -0.545572620664  -13.511140189052   -9.064348554007
 35      -0.595550095763  -14.120682283181  -12.354066962745
 36       4.013004452561  -15.018382738728  -12.330198014561
 37       2.363678377178  -17.045534643048  -10.245005251915
 38       6.351259743684  -15.556457439984   -8.306810218570
 39       3.719100435360  -14.457170370214   -6.559110055962


------------------
SYMMETRY REDUCTION
------------------
ORCA supports only abelian point groups.
It is now checked, if the determined point group is supported:
Point Group ( C1    ) is          ... supported

The point group is C1 - hence turning off symmetry
If this is a round-off problem, please increase the symmetry
        detection tolerance (%method SymThresh)

Storing the symmetry object:
Symmetry file                     ... input_16.sym.tmp
Writing symmetry information      ... done

                       ****************************
                       * Single Point Calculation *
                       ****************************

---------------------------------
CARTESIAN COORDINATES (ANGSTROEM)
---------------------------------
  V     -0.651233   -0.573812    0.675250
  S     -2.108945    1.357506    0.564364
  S     -1.224196   -0.951945   -1.748891
  S      0.751477    0.572079    2.329802
  S      1.507426   -1.617975   -0.036122
  O     -1.531472   -1.532927    1.602825
  C     -0.058430   -2.192997   -2.219109
  C      1.060413   -2.458411   -1.520282
  C     -1.381975    2.282897    1.862455
  C     -0.269935    1.978137    2.557548
  S     -0.290287   -3.152617   -3.734336
  S      2.162985   -3.705567   -2.215050
  S      0.248137    3.162995    3.792537
  S     -2.178315    3.831075    2.250801
  C      1.234249   -4.062244   -3.682512
  C     -1.035488    4.331770    3.488578
  C      1.642218   -4.945291   -4.654765
  C     -1.136219    5.511311    4.157107
  S      0.657043   -5.332762   -6.095012
  S      3.178019   -5.858253   -4.568234
  S     -2.454123    6.652232    3.810801
  S      0.076730    5.947647    5.376738
  C      0.724645    7.459416    4.537474
  C     -1.429498    8.100391    3.279033
  C     -0.361334    8.512750    4.296711
  H      1.191723    7.153859    3.597011
  H      1.503349    7.856736    5.194387
  H      0.120566    9.430025    3.925784
  H     -0.840264    8.759328    5.251896
  H     -2.140242    8.918126    3.126845
  H     -0.972004    7.861192    2.313869
  C      2.487992   -7.575107   -4.429128
  C      0.306543   -7.114351   -5.712588
  C      1.564375   -7.977254   -5.582369
  H     -0.288705   -7.149787   -4.796647
  H     -0.315152   -7.472343   -6.537491
  H      2.123590   -7.947386   -6.524860
  H      1.250805   -9.020108   -5.421423
  H      3.360942   -8.232123   -4.395775
  H      1.968063   -7.650405   -3.470932

----------------------------
CARTESIAN COORDINATES (A.U.)
----------------------------
  NO LB      ZA    FRAG     MASS         X           Y           Z
   0 V    23.0000    0    50.940   -1.230651   -1.084348    1.276038
   1 S    16.0000    0    32.060   -3.985329    2.565314    1.066493
   2 S    16.0000    0    32.060   -2.313396   -1.798914   -3.304926
   3 S    16.0000    0    32.060    1.420085    1.081072    4.402688
   4 S    16.0000    0    32.060    2.848623   -3.057529   -0.068260
   5 O     8.0000    0    15.999   -2.894063   -2.896813    3.028901
   6 C     6.0000    0    12.011   -0.110416   -4.144163   -4.193509
   7 C     6.0000    0    12.011    2.003890   -4.645724   -2.872916
   8 C     6.0000    0    12.011   -2.611555    4.314050    3.519530
   9 C     6.0000    0    12.011   -0.510104    3.738138    4.833065
  10 S    16.0000    0    32.060   -0.548563   -5.957583   -7.056872
  11 S    16.0000    0    32.060    4.087449   -7.002507   -4.185838
  12 S    16.0000    0    32.060    0.468911    5.977194    7.166856
  13 S    16.0000    0    32.060   -4.116420    7.239682    4.253397
  14 C     6.0000    0    12.011    2.332393   -7.676528   -6.958939
  15 C     6.0000    0    12.011   -1.956790    8.185859    6.592457
  16 C     6.0000    0    12.011    3.103343   -9.345246   -8.796232
  17 C     6.0000    0    12.011   -2.147142   10.414869    7.855794
  18 S    16.0000    0    32.060    1.241631  -10.077459  -11.517903
  19 S    16.0000    0    32.060    6.005586  -11.070494   -8.632712
  20 S    16.0000    0    32.060   -4.637621   12.570897    7.201370
  21 S    16.0000    0    32.060    0.144998   11.239425   10.160563
  22 C     6.0000    0    12.011    1.369380   14.096253    8.574584
  23 C     6.0000    0    12.011   -2.701359   15.307521    6.196475
  24 C     6.0000    0    12.011   -0.682821   16.086767    8.119608
  25 H     1.0000    0     1.008    2.252029   13.518834    6.797366
  26 H     1.0000    0     1.008    2.840918   14.847080    9.815968
  27 H     1.0000    0     1.008    0.227836   17.820164    7.418656
  28 H     1.0000    0     1.008   -1.587868   16.552730    9.924644
  29 H     1.0000    0     1.008   -4.044472   16.852816    5.908880
  30 H     1.0000    0     1.008   -1.836820   14.855500    4.372579
  31 C     6.0000    0    12.011    4.701623  -14.314878   -8.369839
  32 C     6.0000    0    12.011    0.579282  -13.444175  -10.795228
  33 C     6.0000    0    12.011    2.956240  -15.074826  -10.549149
  34 H     1.0000    0     1.008   -0.545573  -13.511140   -9.064349
  35 H     1.0000    0     1.008   -0.595550  -14.120682  -12.354067
  36 H     1.0000    0     1.008    4.013004  -15.018383  -12.330198
  37 H     1.0000    0     1.008    2.363678  -17.045535  -10.245005
  38 H     1.0000    0     1.008    6.351260  -15.556457   -8.306810
  39 H     1.0000    0     1.008    3.719100  -14.457170   -6.559110

--------------------------------
INTERNAL COORDINATES (ANGSTROEM)
--------------------------------
 V      0   0   0     0.000000000000     0.00000000     0.00000000
 S      1   0   0     2.422232677826     0.00000000     0.00000000
 S      1   2   0     2.519471109683    86.48904446     0.00000000
 S      1   2   3     2.453202110213    90.14591955   148.26680530
 S      1   2   3     2.501226359162   147.05738537    69.34862442
 O      1   2   3     1.598473831439    99.99595535   250.23423883
 C      3   1   2     1.766444896841   102.20937615   169.15002687
 C      7   3   1     1.345590351280   123.30355191   341.64401757
 C      2   1   3     1.752106189805    97.90348375   205.15392831
 C      9   2   1     1.346352577909   127.27537330     5.56004347
 S      7   3   1     1.808463550858   120.74545803   163.84299511
 S      8   7   3     1.803819784075   116.39670057   183.06174433
 S     10   9   2     1.788151152937   116.47976825   177.99063944
 S      9   2   1     1.783766846504   115.75142751   182.90715292
 C     12   8   7     1.772910483806    97.91502177     1.28234589
 C     14   9   2     1.757510177582    96.33227527   182.79419832
 C     15  12   8     1.375314067325   123.98093336   177.53304676
 C     16  14   9     1.359557163251   123.04530009   178.97811588
 S     17  15  12     1.787460035628   123.04508878   177.61465719
 S     17  15  12     1.788762558291   123.24318699   359.94194671
 S     18  16  14     1.777217295482   121.07057367   359.71418858
 S     18  16  14     1.774579587119   120.04207033   180.87687678
 C     22  18  16     1.846510507592    97.39822026   117.49740512
 C     21  18  16     1.851971801959    98.49184989   240.27661672
 C     24  21  18     1.531888860383   113.92361706   306.17288625
 H     23  22  18     1.093616702530   108.17824618   295.65887266
 H     23  22  18     1.093516152673   105.92042716   179.72564926
 H     25  24  21     1.100548312016   107.80469812   185.16390488
 H     25  24  21     1.096608954573   109.55124502   301.62056454
 H     24  21  18     1.094078992393   105.36543283   185.34836498
 H     24  21  18     1.094559044427   108.27359477    69.77202475
 C     20  17  15     1.855552959942    99.00848595   114.68162193
 C     19  17  15     1.855574945109    98.40541146   246.16994146
 C     33  19  17     1.530915188009   113.79791636   300.41079211
 H     33  19  17     1.092942991871   107.86182874    63.99115392
 H     33  19  17     1.093218094540   105.44523394   179.40457279
 H     34  33  19     1.096313249088   109.30623269   300.10222525
 H     34  33  19     1.100806431028   108.20221983   183.59895781
 H     32  20  17     1.093079898738   105.15581339   178.51783078
 H     32  20  17     1.092765158425   107.84388349   293.76709608

---------------------------
INTERNAL COORDINATES (A.U.)
---------------------------
 V      0   0   0     0.000000000000     0.00000000     0.00000000
 S      1   0   0     4.577356393726     0.00000000     0.00000000
 S      1   2   0     4.761110399628    86.48904446     0.00000000
 S      1   2   3     4.635880139461    90.14591955   148.26680530
 S      1   2   3     4.726632817761   147.05738537    69.34862442
 O      1   2   3     3.020677773659    99.99595535   250.23423883
 C      3   1   2     3.338097085691   102.20937615   169.15002687
 C      7   3   1     2.542797252366   123.30355191   341.64401757
 C      2   1   3     3.311000856280    97.90348375   205.15392831
 C      9   2   1     2.544237651946   127.27537330     5.56004347
 S      7   3   1     3.417500834300   120.74545803   163.84299511
 S      8   7   3     3.408725386850   116.39670057   183.06174433
 S     10   9   2     3.379115965107   116.47976825   177.99063944
 S      9   2   1     3.370830826660   115.75142751   182.90715292
 C     12   8   7     3.350315274351    97.91502177     1.28234589
 C     14   9   2     3.321212913210    96.33227527   182.79419832
 C     15  12   8     2.598966935373   123.98093336   177.53304676
 C     16  14   9     2.569190701956   123.04530009   178.97811588
 S     17  15  12     3.377809942665   123.04508878   177.61465719
 S     17  15  12     3.380271353783   123.24318699   359.94194671
 S     18  16  14     3.358453968930   121.07057367   359.71418858
 S     18  16  14     3.353469422503   120.04207033   180.87687678
 C     22  18  16     3.489399162756    97.39822026   117.49740512
 C     21  18  16     3.499719513447    98.49184989   240.27661672
 C     24  21  18     2.894850413729   113.92361706   306.17288625
 H     23  22  18     2.066636063263   108.17824618   295.65887266
 H     23  22  18     2.066446051571   105.92042716   179.72564926
 H     25  24  21     2.079734906860   107.80469812   185.16390488
 H     25  24  21     2.072290600149   109.55124502   301.62056454
 H     24  21  18     2.067509664499   105.36543283   185.34836498
 H     24  21  18     2.068416831374   108.27359477    69.77202475
 C     20  17  15     3.506486921278    99.00848595   114.68162193
 C     19  17  15     3.506528467222    98.40541146   246.16994146
 C     33  19  17     2.893010439597   113.79791636   300.41079211
 H     33  19  17     2.065362934626   107.86182874    63.99115392
 H     33  19  17     2.065882803328   105.44523394   179.40457279
 H     34  33  19     2.071731797766   109.30623269   300.10222525
 H     34  33  19     2.080222681103   108.20221983   183.59895781
 H     32  20  17     2.065621651110   105.15581339   178.51783078
 H     32  20  17     2.065026878114   107.84388349   293.76709608

---------------------
BASIS SET INFORMATION
---------------------
There are 5 groups of distinct atoms

 Group   1 Type V   : 17s11p5d1f contracted to 17s7p3d1f pattern {11111111111111111/3311111/311/1}
 Group   2 Type S   : 14s9p1d contracted to 5s4p1d pattern {73211/6111/1}
 Group   3 Type O   : 11s6p1d contracted to 5s3p1d pattern {62111/411/1}
 Group   4 Type C   : 11s6p1d contracted to 5s3p1d pattern {62111/411/1}
 Group   5 Type H   : 5s1p contracted to 3s1p pattern {311/1}

Atom   0V    basis set group =>   1
Atom   1S    basis set group =>   2
Atom   2S    basis set group =>   2
Atom   3S    basis set group =>   2
Atom   4S    basis set group =>   2
Atom   5O    basis set group =>   3
Atom   6C    basis set group =>   4
Atom   7C    basis set group =>   4
Atom   8C    basis set group =>   4
Atom   9C    basis set group =>   4
Atom  10S    basis set group =>   2
Atom  11S    basis set group =>   2
Atom  12S    basis set group =>   2
Atom  13S    basis set group =>   2
Atom  14C    basis set group =>   4
Atom  15C    basis set group =>   4
Atom  16C    basis set group =>   4
Atom  17C    basis set group =>   4
Atom  18S    basis set group =>   2
Atom  19S    basis set group =>   2
Atom  20S    basis set group =>   2
Atom  21S    basis set group =>   2
Atom  22C    basis set group =>   4
Atom  23C    basis set group =>   4
Atom  24C    basis set group =>   4
Atom  25H    basis set group =>   5
Atom  26H    basis set group =>   5
Atom  27H    basis set group =>   5
Atom  28H    basis set group =>   5
Atom  29H    basis set group =>   5
Atom  30H    basis set group =>   5
Atom  31C    basis set group =>   4
Atom  32C    basis set group =>   4
Atom  33C    basis set group =>   4
Atom  34H    basis set group =>   5
Atom  35H    basis set group =>   5
Atom  36H    basis set group =>   5
Atom  37H    basis set group =>   5
Atom  38H    basis set group =>   5
Atom  39H    basis set group =>   5

-------------------------
BASIS SET IN INPUT FORMAT
-------------------------

 # Basis set for element : H 
 NewGTO H 
 S 3 
   1      34.0613410000      0.0254393168
   2       5.1235746000      0.1900859340
   3       1.1646626000      0.8524411390
 S 1 
   1       0.3272304100      1.0000000000
 S 1 
   1       0.1030724100      1.0000000000
 P 1 
   1       0.8000000000      1.0000000000
  end;

 # Basis set for element : C 
 NewGTO C 
 S 6 
   1   13575.3496820000      0.0006064601
   2    2035.2333680000      0.0046978985
   3     463.2256235900      0.0243324735
   4     131.2001959800      0.0973999560
   5      42.8530158900      0.3019558443
   6      15.5841857700      0.6623361013
 S 2 
   1       6.2067138500      0.6559530795
   2       2.5764896500      0.3758563390
 S 1 
   1       0.5769633900      1.0000000000
 S 1 
   1       0.2297283100      1.0000000000
 S 1 
   1       0.0951644400      1.0000000000
 P 4 
   1      34.6972322400      0.0113272290
   2       7.9582622800      0.0761696612
   3       2.3780826900      0.3019225154
   4       0.8143320800      0.7278502776
 P 1 
   1       0.2888754700      1.0000000000
 P 1 
   1       0.1005682400      1.0000000000
 D 1 
   1       0.8000000000      1.0000000000
  end;

 # Basis set for element : O 
 NewGTO O 
 S 6 
   1   27032.3826310000      0.0005722654
   2    4052.3871392000      0.0044353333
   3     922.3272271000      0.0230201034
   4     261.2407098900      0.0928224938
   5      85.3546413500      0.2937849971
   6      31.0350352400      0.6740160462
 S 2 
   1      12.2608607300      0.6383993750
   2       4.9987076000      0.3953458663
 S 1 
   1       1.1703108200      1.0000000000
 S 1 
   1       0.4647474100      1.0000000000
 S 1 
   1       0.1850453600      1.0000000000
 P 4 
   1      63.2749548000      0.0120183316
   2      14.6270493800      0.0830054304
   3       4.4501223500      0.3199174388
   4       1.5275799600      0.7071554258
 P 1 
   1       0.5293511800      1.0000000000
 P 1 
   1       0.1747842100      1.0000000000
 D 1 
   1       1.2000000000      1.0000000000
  end;

 # Basis set for element : S 
 NewGTO S 
 S 7 
   1   60700.9281040000      0.0005238013
   2    9102.6106854000      0.0040506304
   3    2071.4166009000      0.0208270003
   4     586.0247682100      0.0814968475
   5     190.5539502100      0.2374911358
   6      67.6303842600      0.4472617145
   7      25.1273069100      0.3489191913
 S 3 
   1     112.5746301000      0.1004556993
   2      34.7955542200      0.4339117282
   3       6.5115556200     -1.2084330582
 S 2 
   1       3.2399032300      0.6749812922
   2       1.5477160900      0.3470879597
 S 1 
   1       0.4054103000      1.0000000000
 S 1 
   1       0.1455065100      1.0000000000
 P 6 
   1     564.3671602700      0.0025564845
   2     133.4262437900      0.0202874255
   3      42.4682711900      0.0927670112
   4      15.6165275800      0.2650208365
   5       6.1093988500      0.4486298663
   6       2.4404160200      0.3596369916
 P 1 
   1       0.8388220100      1.0000000000
 P 1 
   1       0.3128874700      1.0000000000
 P 1 
   1       0.1077010900      1.0000000000
 D 1 
   1       0.5500000000      1.0000000000
  end;

 # Basis set for element : V 
 NewGTO V 
 S 1 
   1  4239814.9912500000      1.0000000000
 S 1 
   1  1695925.9965000001      1.0000000000
 S 1 
   1  678370.3986000001      1.0000000000
 S 1 
   1  271348.1594400000      1.0000000000
 S 1 
   1   40672.0050780000      1.0000000000
 S 1 
   1    9257.0761385000      1.0000000000
 S 1 
   1    2622.7328773000      1.0000000000
 S 1 
   1     858.5948018500      1.0000000000
 S 1 
   1     314.1941865000      1.0000000000
 S 1 
   1     124.4786212700      1.0000000000
 S 1 
   1      50.4693993090      1.0000000000
 S 1 
   1      12.5138469110      1.0000000000
 S 1 
   1       5.3447758082      1.0000000000
 S 1 
   1       1.5755631295      1.0000000000
 S 1 
   1       0.6306903307      1.0000000000
 S 1 
   1       0.0879544416      1.0000000000
 S 1 
   1       0.0342969197      1.0000000000
 P 3 
   1    1450.0319327000     -0.0222847647
   2     343.7504988400     -0.1817959329
   3     110.8252170800     -0.8607412073
 P 3 
   1      41.8224645460     -0.2522537814
   2      17.0880737100     -0.4620379520
   3       7.2613218939     -0.3990010670
 P 1 
   1       2.9458145262      1.0000000000
 P 1 
   1       1.1650209680      1.0000000000
 P 1 
   1       0.4339937839      1.0000000000
 D 3 
   1      27.3603358640      0.0575501019
   2       7.4542765527      0.3023798347
   3       2.4632270217      0.7724212088
 D 1 
   1       0.8249954244      1.0000000000
 D 1 
   1       0.2526297057      1.0000000000
 P 1 
   1       0.1112480000      1.0000000000
 P 1 
   1       0.0363780000      1.0000000000
 F 1 
   1       1.8000000000      1.0000000000
  end;

---------------------------------
AUXILIARY/J BASIS SET INFORMATION
---------------------------------
There are 5 groups of distinct atoms

 Group   1 Type V   : 19s5p5d3f3g contracted to 8s5p5d2f3g pattern {121111111/11111/11111/21/111}
 Group   2 Type S   : 14s5p5d2f1g contracted to 8s4p3d1f1g pattern {71111111/2111/311/2/1}
 Group   3 Type O   : 12s5p4d2f1g contracted to 6s4p3d1f1g pattern {711111/2111/211/2/1}
 Group   4 Type C   : 12s5p4d2f1g contracted to 6s4p3d1f1g pattern {711111/2111/211/2/1}
 Group   5 Type H   : 5s2p1d contracted to 3s1p1d pattern {311/2/1}

Atom   0V    basis set group =>   1
Atom   1S    basis set group =>   2
Atom   2S    basis set group =>   2
Atom   3S    basis set group =>   2
Atom   4S    basis set group =>   2
Atom   5O    basis set group =>   3
Atom   6C    basis set group =>   4
Atom   7C    basis set group =>   4
Atom   8C    basis set group =>   4
Atom   9C    basis set group =>   4
Atom  10S    basis set group =>   2
Atom  11S    basis set group =>   2
Atom  12S    basis set group =>   2
Atom  13S    basis set group =>   2
Atom  14C    basis set group =>   4
Atom  15C    basis set group =>   4
Atom  16C    basis set group =>   4
Atom  17C    basis set group =>   4
Atom  18S    basis set group =>   2
Atom  19S    basis set group =>   2
Atom  20S    basis set group =>   2
Atom  21S    basis set group =>   2
Atom  22C    basis set group =>   4
Atom  23C    basis set group =>   4
Atom  24C    basis set group =>   4
Atom  25H    basis set group =>   5
Atom  26H    basis set group =>   5
Atom  27H    basis set group =>   5
Atom  28H    basis set group =>   5
Atom  29H    basis set group =>   5
Atom  30H    basis set group =>   5
Atom  31C    basis set group =>   4
Atom  32C    basis set group =>   4
Atom  33C    basis set group =>   4
Atom  34H    basis set group =>   5
Atom  35H    basis set group =>   5
Atom  36H    basis set group =>   5
Atom  37H    basis set group =>   5
Atom  38H    basis set group =>   5
Atom  39H    basis set group =>   5

-------------------------------------
AUXILIARY/J BASIS SET IN INPUT FORMAT
-------------------------------------

 # Auxiliary/J basis set for element : H 
 NewAuxJGTO H 
 S 3 
   1      15.6752927000      0.1007184237
   2       3.6063578000      0.3404257499
   3       1.2080016000      0.6491996172
 S 1 
   1       0.4726794000      1.0000000000
 S 1 
   1       0.2018100000      1.0000000000
 P 2 
   1       2.0281365000      0.5596620919
   2       0.5358730000      0.5596620919
 D 1 
   1       2.2165124000      1.0000000000
  end;

 # Auxiliary/J basis set for element : C 
 NewAuxJGTO C 
 S 7 
   1    1861.0916331000      0.0134602335
   2     642.9939764000      0.0299160374
   3     235.1105725000      0.1008649584
   4      90.7028894000      0.2370970548
   5      36.7794552000      0.3924037254
   6      15.6046273000      0.3195862154
   7       6.8907294000      0.0530104441
 S 1 
   1       3.1478850000     -1.0000000000
 S 1 
   1       1.4777287000      1.0000000000
 S 1 
   1       0.7076466000      1.0000000000
 S 1 
   1       0.3430122000      1.0000000000
 S 1 
   1       0.1669453000      1.0000000000
 P 2 
   1      13.5472892000     -0.6769313712
   2       5.4669419000     -0.3779500978
 P 1 
   1       2.1751721000      1.0000000000
 P 1 
   1       0.8582194000      1.0000000000
 P 1 
   1       0.3376720000      1.0000000000
 D 2 
   1       5.9287253000     -0.3533329857
   2       1.9809209000     -0.7456525731
 D 1 
   1       0.8055417000     -1.0000000000
 D 1 
   1       0.3531244000     -1.0000000000
 F 2 
   1       1.6755626000      0.6311076882
   2       0.5997536000      0.4968166032
 G 1 
   1       1.0024600000     -1.0000000000
  end;

 # Auxiliary/J basis set for element : O 
 NewAuxJGTO O 
 S 7 
   1    2876.8216605000      0.0168151159
   2    1004.7443032000      0.0340137548
   3     369.7579954000      0.1194951309
   4     142.9442404000      0.2664627624
   5      57.8366425000      0.4202764046
   6      24.3864983000      0.2765077335
   7      10.6622662000      0.0057008815
 S 1 
   1       4.8070437000     -1.0000000000
 S 1 
   1       2.2210770000      1.0000000000
 S 1 
   1       1.0447795000      1.0000000000
 S 1 
   1       0.4968425000      1.0000000000
 S 1 
   1       0.2371384000      1.0000000000
 P 2 
   1      64.2613382000     -0.2731534179
   2      16.3006076000     -0.8168011598
 P 1 
   1       4.3550542000      1.0000000000
 P 1 
   1       1.2019554000      1.0000000000
 P 1 
   1       0.3354196000      1.0000000000
 D 2 
   1       9.2146611000     -0.4661230638
   2       2.8435251000     -0.6600908911
 D 1 
   1       0.9955759000     -1.0000000000
 D 1 
   1       0.3649441000     -1.0000000000
 F 2 
   1       2.6420115000      0.5931563945
   2       0.7345613000      0.5931563945
 G 1 
   1       1.3931000000     -1.0000000000
  end;

 # Auxiliary/J basis set for element : S 
 NewAuxJGTO S 
 S 7 
   1    7399.0303145000      0.0295137551
   2    2710.1675859000      0.0559686311
   3    1034.3279062000      0.1764696370
   4     410.4645411000      0.3577969368
   5     168.9762502000      0.4299293578
   6      71.9687889000      0.1259148089
   7      31.6172683000     -0.0646025788
 S 1 
   1      14.2796836000      1.0000000000
 S 1 
   1       6.6060948000      1.0000000000
 S 1 
   1       3.1181477000      1.0000000000
 S 1 
   1       1.4954039000     -1.0000000000
 S 1 
   1       0.7254779000      1.0000000000
 S 1 
   1       0.3544216000      1.0000000000
 S 1 
   1       0.1735525000      1.0000000000
 P 2 
   1      12.6998799000      1.4059102813
   2       4.4295784000     -1.2124994202
 P 1 
   1       1.5232889000      1.0000000000
 P 1 
   1       0.5194667000     -1.0000000000
 P 1 
   1       0.1766547000     -1.0000000000
 D 3 
   1      16.8546461000      1.0295742104
   2       5.0810461000     -0.7461553923
   3       1.5102323000      0.8357028005
 D 1 
   1       0.4451331000      1.0000000000
 D 1 
   1       0.1308362000      1.0000000000
 F 2 
   1       1.0809860000      0.5572698934
   2       0.4161474000      0.5572698934
 G 1 
   1       0.6707100000     -1.0000000000
  end;

 # Auxiliary/J basis set for element : V 
 NewAuxJGTO V 
 S 12 
   1   11942.0842430000      0.0459866720
   2    2430.7110193000      0.1744615821
   3     841.0764301000      0.2900402792
   4     494.7508273000      0.1411212903
   5     291.0298903000      0.2660697186
   6     171.1940483000      0.0446365706
   7      59.2366916000     -0.0408204801
   8      34.8451117000      0.1394665381
   9      20.4971240000      0.2164746715
  10      12.0571314000      0.0864266611
  11       7.0924300000     -0.0568501658
  12       4.1720176000     -0.0126212852
 S 1 
   1       2.4541279000      1.0000000000
 S 1 
   1       1.4436046000      1.0000000000
 S 1 
   1       0.8491792000      1.0000000000
 S 1 
   1       0.2938336000      1.0000000000
 S 1 
   1       0.1728433000      1.0000000000
 S 1 
   1       0.1016725000      1.0000000000
 S 1 
   1       0.0598074000      1.0000000000
 P 1 
   1      16.7130979000     -1.0000000000
 P 1 
   1       4.7454037000     -1.0000000000
 P 1 
   1       1.3889998000      1.0000000000
 P 1 
   1       0.4142440000     -1.0000000000
 P 1 
   1       0.1243234000      1.0000000000
 D 1 
   1       7.7143225000      1.0000000000
 D 1 
   1       3.1170731000      1.0000000000
 D 1 
   1       1.2767950000     -1.0000000000
 D 1 
   1       0.5273386000      1.0000000000
 D 1 
   1       0.2184050000      1.0000000000
 F 2 
   1       3.1309344000     -1.0825667766
   2       1.0419780000      0.1809223232
 F 1 
   1       0.3559044000      1.0000000000
 G 1 
   1       8.7130110000      1.0000000000
 G 1 
   1       2.7493872000      1.0000000000
 G 1 
   1       0.8775089000      1.0000000000
  end;



           ************************************************************
           *        Program running with 8 parallel MPI-processes     *
           *              working on a common directory               *
           ************************************************************
------------------------------------------------------------------------------
                           ORCA GTO INTEGRAL CALCULATION
                           -- RI-GTO INTEGRALS CHOSEN --
------------------------------------------------------------------------------
------------------------------------------------------------------------------
                   ___                                                        
                  /   \      - P O W E R E D   B Y -                         
                 /     \                                                     
                 |  |  |   _    _      __       _____    __    __             
                 |  |  |  | |  | |    /  \     |  _  \  |  |  /  |          
                  \  \/   | |  | |   /    \    | | | |  |  | /  /          
                 / \  \   | |__| |  /  /\  \   | |_| |  |  |/  /          
                |  |  |   |  __  | /  /__\  \  |    /   |      \           
                |  |  |   | |  | | |   __   |  |    \   |  |\   \          
                \     /   | |  | | |  |  |  |  | |\  \  |  | \   \       
                 \___/    |_|  |_| |__|  |__|  |_| \__\ |__|  \__/        
                                                                              
                      - O R C A' S   B I G   F R I E N D -                    
                                      &                                       
                       - I N T E G R A L  F E E D E R -                       
                                                                              
 v1 FN, 2020, v2 2021                                                         
------------------------------------------------------------------------------


Reading SHARK input file input_16.SHARKINP.tmp ... ok
----------------------
SHARK INTEGRAL PACKAGE
----------------------

Number of atoms                             ...     40
Number of basis functions                   ...    681
Number of shells                            ...    331
Maximum angular momentum                    ...      3
Integral batch strategy                     ... SHARK/LIBINT Hybrid
RI-J (if used) integral strategy            ... SPLIT-RIJ (Revised 2003 algorithm where possible)
Printlevel                                  ...      1
Contraction scheme used                     ... SEGMENTED contraction
Coulomb Range Separation                    ... NOT USED
Exchange Range Separation                   ... NOT USED
Finite Nucleus Model                        ... NOT USED
Auxiliary Coulomb fitting basis             ... AVAILABLE
   # of basis functions in Aux-J            ...   1568
   # of shells in Aux-J                     ...    512
   Maximum angular momentum in Aux-J        ...      4
Auxiliary J/K fitting basis                 ... NOT available
Auxiliary Correlation fitting basis         ... NOT available
Auxiliary 'external' fitting basis          ... NOT available
Integral threshold                          ...     1.000000e-10
Primitive cut-off                           ...     1.000000e-11
Primitive pair pre-selection threshold      ...     1.000000e-11

Calculating pre-screening integrals         ... done (  0.1 sec) Dimension = 331
Organizing shell pair data                  ... done (  0.1 sec)
Shell pair information
Total number of shell pairs                 ...     54946
Shell pairs after pre-screening             ...     22683
Total number of primitive shell pairs       ...    221635
Primitive shell pairs kept                  ...     55398
          la=0 lb=0:   6407 shell pairs
          la=1 lb=0:   9097 shell pairs
          la=1 lb=1:   3198 shell pairs
          la=2 lb=0:   2124 shell pairs
          la=2 lb=1:   1536 shell pairs
          la=2 lb=2:    197 shell pairs
          la=3 lb=0:     56 shell pairs
          la=3 lb=1:     55 shell pairs
          la=3 lb=2:     12 shell pairs
          la=3 lb=3:      1 shell pairs

Calculating one electron integrals          ... done (  0.0 sec)
Calculating RI/J V-Matrix + Cholesky decomp.... done (  0.1 sec)
Calculating Nuclear repulsion               ... done (  0.0 sec) ENN=   5062.799553489323 Eh

SHARK setup successfully completed in   0.6 seconds

Maximum memory used throughout the entire GTOINT-calculation: 39.7 MB


           ************************************************************
           *        Program running with 8 parallel MPI-processes     *
           *              working on a common directory               *
           ************************************************************
-------------------------------------------------------------------------------
                                 ORCA SCF
-------------------------------------------------------------------------------

------------
SCF SETTINGS
------------
Hamiltonian:
 Density Functional     Method          .... DFT(GTOs)
 Exchange Functional    Exchange        .... B88
   X-Alpha parameter    XAlpha          ....  0.666667
   Becke's b parameter  XBeta           ....  0.004200
 Correlation Functional Correlation     .... LYP
 LDA part of GGA corr.  LDAOpt          .... VWN-5
 Gradients option       PostSCFGGA      .... off
 Hybrid DFT is turned on
   Fraction HF Exchange ScalHFX         ....  0.200000
   Scaling of DF-GGA-X  ScalDFX         ....  0.720000
   Scaling of DF-GGA-C  ScalDFC         ....  0.810000
   Scaling of DF-LDA-C  ScalLDAC        ....  1.000000
   Perturbative correction              ....  0.000000
   Density functional embedding theory  .... OFF
   NL short-range parameter             ....  4.800000
 RI-approximation to the Coulomb term is turned on
   Number of AuxJ basis functions       .... 1568
   RIJ-COSX (HFX calculated with COS-X)).... on


General Settings:
 Integral files         IntName         .... input_16
 Hartree-Fock type      HFTyp           .... UHF
 Total Charge           Charge          ....   -2
 Multiplicity           Mult            ....    2
 Number of Electrons    NEL             ....  321
 Basis Dimension        Dim             ....  681
 Nuclear Repulsion      ENuc            ....   5062.7995534893 Eh

Convergence Acceleration:
 DIIS                   CNVDIIS         .... on
   Start iteration      DIISMaxIt       ....    12
   Startup error        DIISStart       ....  0.200000
   # of expansion vecs  DIISMaxEq       ....     5
   Bias factor          DIISBfac        ....   1.050
   Max. coefficient     DIISMaxC        ....  10.000
 Trust-Rad. Augm. Hess. CNVTRAH         .... auto
   Auto Start mean grad. ratio tolernc. ....  1.125000
   Auto Start start iteration           ....    20
   Auto Start num. interpolation iter.  ....    10
   Max. Number of Micro iterations      ....    16
   Max. Number of Macro iterations      .... Maxiter - #DIIS iter
   Number of Davidson start vectors     ....     2
   Converg. threshold I  (grad. norm)   ....   5.000e-05
   Converg. threshold II (energy diff.) ....   1.000e-06
   Grad. Scal. Fac. for Micro threshold ....   0.100
   Minimum threshold for Micro iter.    ....   0.010
   NR start threshold (gradient norm)   ....   0.001
   Initial trust radius                 ....   0.400
   Minimum AH scaling param. (alpha)    ....   1.000
   Maximum AH scaling param. (alpha)    .... 1000.000
   Orbital update algorithm             .... Taylor
   White noise on init. David. guess    .... on
   Maximum white noise                  ....   0.010
   Quad. conv. algorithm                .... NR
 SOSCF                  CNVSOSCF        .... off
 Level Shifting         CNVShift        .... on
   Level shift para.    LevelShift      ....    0.2500
   Turn off err/grad.   ShiftErr        ....    0.0010
 Zerner damping         CNVZerner       .... off
 Static damping         CNVDamp         .... on
   Fraction old density DampFac         ....    0.7000
   Max. Damping (<1)    DampMax         ....    0.9800
   Min. Damping (>=0)   DampMin         ....    0.0000
   Turn off err/grad.   DampErr         ....    0.1000
 Fernandez-Rico         CNVRico         .... off

SCF Procedure:
 Maximum # iterations   MaxIter         ....   125
 SCF integral mode      SCFMode         .... Direct
   Integral package                     .... SHARK and LIBINT hybrid scheme
 Reset frequency        DirectResetFreq ....    20
 Integral Threshold     Thresh          ....  1.000e-10 Eh
 Primitive CutOff       TCut            ....  1.000e-11 Eh

Convergence Tolerance:
 Convergence Check Mode ConvCheckMode   .... Total+1el-Energy
 Convergence forced     ConvForced      .... 0
 Energy Change          TolE            ....  1.000e-06 Eh
 1-El. energy change                    ....  1.000e-03 Eh
 DIIS Error             TolErr          ....  1.000e-06


Diagonalization of the overlap matrix:
Smallest eigenvalue                        ... 7.895e-05
Time for diagonalization                   ...    0.196 sec
Threshold for overlap eigenvalues          ... 1.000e-08
Number of eigenvalues below threshold      ... 0
Time for construction of square roots      ...    0.170 sec
Total time needed                          ...    0.369 sec

Time for model grid setup =    0.353 sec

------------------------------
INITIAL GUESS: MODEL POTENTIAL
------------------------------
Loading Hartree-Fock densities                     ... done
Calculating cut-offs                               ... done
Initializing the effective Hamiltonian             ... done
Setting up the integral package (SHARK)            ... done
Starting the Coulomb interaction                   ... done (   0.3 sec)
Reading the grid                                   ... done
Mapping shells                                     ... done
Starting the XC term evaluation                    ... done (   0.2 sec)
  promolecular density results
     # of electrons  =    318.990792373
     EX              =   -428.259811933
     EC              =    -12.537042038
     EX+EC           =   -440.796853971
Transforming the Hamiltonian                       ... done (   0.2 sec)
Diagonalizing the Hamiltonian                      ... done (   0.2 sec)
Back transforming the eigenvectors                 ... done (   0.1 sec)
Now organizing SCF variables                       ... done
                      ------------------
                      INITIAL GUESS DONE (   1.3 sec)
                      ------------------
-------------------
DFT GRID GENERATION
-------------------

General Integration Accuracy     IntAcc      ... 4.388
Radial Grid Type                 RadialGrid  ... OptM3 with GC (2021)
Angular Grid (max. ang.)         AngularGrid ... 4 (Lebedev-302)
Angular grid pruning method      GridPruning ... 4 (adaptive)
Weight generation scheme         WeightScheme... Becke
Basis function cutoff            BFCut       ... 1.0000e-10
Integration weight cutoff        WCut        ... 1.0000e-14
Angular grids for H and He will be reduced by one unit
Partially contracted basis set               ... off
Rotationally invariant grid construction     ... off

Total number of grid points                  ...   237394
Total number of batches                      ...     3730
Average number of points per batch           ...       63
Average number of grid points per atom       ...     5935
Time for grid setup =    1.792 sec

--------------------
COSX GRID GENERATION
--------------------

GRIDX 1
-------
General Integration Accuracy     IntAcc      ... 3.816
Radial Grid Type                 RadialGrid  ... OptM3 with GC (2021)
Angular Grid (max. ang.)         AngularGrid ... 1 (Lebedev-50)
Angular grid pruning method      GridPruning ... 4 (adaptive)
Weight generation scheme         WeightScheme... Becke
Basis function cutoff            BFCut       ... 1.0000e-10
Integration weight cutoff        WCut        ... 1.0000e-14
Angular grids for H and He will be reduced by one unit
Partially contracted basis set               ... on
Rotationally invariant grid construction     ... off

Total number of grid points                  ...    29187
Total number of batches                      ...      478
Average number of points per batch           ...       61
Average number of grid points per atom       ...      730
UseSFitting                                  ... on

GRIDX 2
-------
General Integration Accuracy     IntAcc      ... 4.020
Radial Grid Type                 RadialGrid  ... OptM3 with GC (2021)
Angular Grid (max. ang.)         AngularGrid ... 2 (Lebedev-110)
Angular grid pruning method      GridPruning ... 4 (adaptive)
Weight generation scheme         WeightScheme... Becke
Basis function cutoff            BFCut       ... 1.0000e-10
Integration weight cutoff        WCut        ... 1.0000e-14
Angular grids for H and He will be reduced by one unit
Partially contracted basis set               ... on
Rotationally invariant grid construction     ... off

Total number of grid points                  ...    64095
Total number of batches                      ...     1021
Average number of points per batch           ...       62
Average number of grid points per atom       ...     1602
UseSFitting                                  ... on

GRIDX 3
-------
General Integration Accuracy     IntAcc      ... 4.338
Radial Grid Type                 RadialGrid  ... OptM3 with GC (2021)
Angular Grid (max. ang.)         AngularGrid ... 3 (Lebedev-194)
Angular grid pruning method      GridPruning ... 4 (adaptive)
Weight generation scheme         WeightScheme... Becke
Basis function cutoff            BFCut       ... 1.0000e-10
Integration weight cutoff        WCut        ... 1.0000e-14
Angular grids for H and He will be reduced by one unit
Partially contracted basis set               ... on
Rotationally invariant grid construction     ... off

Total number of grid points                  ...   147325
Total number of batches                      ...     2325
Average number of points per batch           ...       63
Average number of grid points per atom       ...     3683
UseSFitting                                  ... on

Time for X-Grid setup             =    1.893 sec

--------------
SCF ITERATIONS
--------------
ITER       Energy         Delta-E        Max-DP      RMS-DP      [F,P]     Damp
               ***  Starting incremental Fock matrix formation  ***
  0  -6336.8716464132   0.000000000000 0.05446504  0.00065455  0.2237796 0.7000
  1  -6337.1876586351  -0.316012221859 0.08950746  0.00061999  0.1557135 0.7000
                               ***Turning on DIIS***
  2  -6337.3689767278  -0.181318092741 0.04435265  0.00033276  0.1088462 0.7000
  3  -6337.4633307563  -0.094354028413 0.02832527  0.00054452  0.0770587 0.0000
  4  -6337.6926301286  -0.229299372305 0.05972365  0.00032268  0.0084067 0.0000
  5  -6337.6987158340  -0.006085705449 0.01047801  0.00007859  0.0069133 0.0000
  6  -6337.6996321798  -0.000916345786 0.00311780  0.00003322  0.0034986 0.0000
  7  -6337.6998915545  -0.000259374681 0.00160335  0.00001817  0.0011943 0.0000
  8  -6337.6999858555  -0.000094301058 0.00323370  0.00003303  0.0009578 0.0000
               *** Restarting incremental Fock matrix formation ***
                                   *** Resetting DIIS ***
  9  -6337.7001611235  -0.000175267971 0.00157994  0.00001547  0.0008951 0.0000
 10  -6337.7000720505   0.000089073039 0.00076858  0.00000562  0.0032144 0.0000
 11  -6337.7001704437  -0.000098393192 0.00051261  0.00000397  0.0013198 0.0000
 12  -6337.7001898748  -0.000019431120 0.00053405  0.00000535  0.0005402 0.0000
 13  -6337.7001986436  -0.000008768775 0.00047158  0.00000388  0.0002878 0.0000
 14  -6337.7002017836  -0.000003140020 0.00026289  0.00000178  0.0001766 0.0000
 15  -6337.7002018092  -0.000000025627 0.00019789  0.00000157  0.0001978 0.0000
 16  -6337.7002025211  -0.000000711881 0.00008123  0.00000072  0.0000935 0.0000
 17  -6337.7002024684   0.000000052652 0.00012246  0.00000050  0.0000222 0.0000
 18  -6337.7002025067  -0.000000038272 0.00001594  0.00000018  0.0000088 0.0000
 19  -6337.7002023735   0.000000133220 0.00001138  0.00000012  0.0000130 0.0000
                 **** Energy Check signals convergence ****

               *****************************************************
               *                     SUCCESS                       *
               *           SCF CONVERGED AFTER  20 CYCLES          *
               *****************************************************

Old exchange energy                            =    -85.927830307 Eh
New exchange energy                            =    -85.927802872 Eh
Exchange energy change after final integration =      0.000027435 Eh
Total energy after final integration           =  -6337.700175021 Eh
Final COS-X integration done in                =    21.265 sec

----------------
TOTAL SCF ENERGY
----------------

Total Energy       :        -6337.70017502 Eh         -172457.58934 eV

Components:
Nuclear Repulsion  :         5062.79955349 Eh          137765.77973 eV
Electronic Energy  :       -11400.49972851 Eh         -310223.36906 eV
One Electron Energy:       -18895.97737383 Eh         -514185.68504 eV
Two Electron Energy:         7495.47764532 Eh          203962.31597 eV
Max COSX asymmetry :            0.00000298 Eh               0.00008 eV

Virial components:
Potential Energy   :       -12658.95464549 Eh         -344467.66830 eV
Kinetic Energy     :         6321.25447047 Eh          172010.07896 eV
Virial Ratio       :            2.00260165


DFT components:
N(Alpha)           :      160.999886470718 electrons
N(Beta)            :      159.999887179052 electrons
N(Total)           :      320.999773649770 electrons
E(X)               :     -341.462911959321 Eh       
E(C)               :      -14.721211744140 Eh       
E(XC)              :     -356.184123703461 Eh       
DFET-embed. en.    :        0.000000000000 Eh       

---------------
SCF CONVERGENCE
---------------

  Last Energy change         ...   -8.2025e-08  Tolerance :   1.0000e-06
  Last MAX-Density change    ...    0.0000e+00  Tolerance :   1.0000e-05
  Last RMS-Density change    ...    0.0000e+00  Tolerance :   1.0000e-06
  Last DIIS Error            ...    7.8094e-06  Tolerance :   1.0000e-06

             **** THE GBW FILE WAS UPDATED (input_16.gbw) ****
             **** DENSITY input_16.scfp WAS UPDATED ****
             **** ENERGY FILE WAS UPDATED (input_16.en.tmp) ****
----------------------
UHF SPIN CONTAMINATION
----------------------

Warning: in a DFT calculation there is little theoretical justification to 
         calculate <S**2> as in Hartree-Fock theory. We will do it anyways
         but you should keep in mind that the values have only limited relevance

Expectation value of <S**2>     :     0.766992
Ideal value S*(S+1) for S=0.5   :     0.750000
Deviation                       :     0.016992

             **** THE GBW FILE WAS UPDATED (input_16.gbw) ****
             **** DENSITY input_16.scfp WAS UPDATED ****
----------------
ORBITAL ENERGIES
----------------
                 SPIN UP ORBITALS
  NO   OCC          E(Eh)            E(eV) 
   0   1.0000    -196.675938     -5351.8243 
   1   1.0000     -88.734142     -2414.5788 
   2   1.0000     -88.733124     -2414.5511 
   3   1.0000     -88.732678     -2414.5389 
   4   1.0000     -88.732369     -2414.5305 
   5   1.0000     -88.731375     -2414.5035 
   6   1.0000     -88.730956     -2414.4921 
   7   1.0000     -88.728605     -2414.4281 
   8   1.0000     -88.728174     -2414.4164 
   9   1.0000     -88.640193     -2412.0223 
  10   1.0000     -88.639977     -2412.0164 
  11   1.0000     -88.638762     -2411.9834 
  12   1.0000     -88.638585     -2411.9785 
  13   1.0000     -22.051212      -600.0440 
  14   1.0000     -18.888970      -513.9950 
  15   1.0000     -18.557611      -504.9783 
  16   1.0000     -18.552495      -504.8391 
  17   1.0000     -18.552420      -504.8370 
  18   1.0000     -10.078913      -274.2612 
  19   1.0000     -10.071938      -274.0714 
  20   1.0000     -10.064555      -273.8705 
  21   1.0000     -10.063343      -273.8375 
  22   1.0000     -10.063150      -273.8322 
  23   1.0000     -10.062918      -273.8259 
  24   1.0000     -10.051835      -273.5243 
  25   1.0000     -10.051408      -273.5127 
  26   1.0000     -10.050114      -273.4775 
  27   1.0000     -10.045803      -273.3602 
  28   1.0000     -10.018699      -272.6226 
  29   1.0000     -10.017688      -272.5951 
  30   1.0000     -10.017051      -272.5778 
  31   1.0000     -10.016228      -272.5554 
  32   1.0000      -7.787624      -211.9120 
  33   1.0000      -7.786852      -211.8910 
  34   1.0000      -7.785902      -211.8652 
  35   1.0000      -7.785663      -211.8587 
  36   1.0000      -7.784155      -211.8176 
  37   1.0000      -7.783909      -211.8109 
  38   1.0000      -7.782209      -211.7647 
  39   1.0000      -7.782004      -211.7591 
  40   1.0000      -7.695065      -209.3934 
  41   1.0000      -7.694569      -209.3799 
  42   1.0000      -7.692537      -209.3246 
  43   1.0000      -7.692503      -209.3237 
  44   1.0000      -5.752619      -156.5367 
  45   1.0000      -5.751794      -156.5143 
  46   1.0000      -5.750922      -156.4905 
  47   1.0000      -5.750667      -156.4836 
  48   1.0000      -5.749157      -156.4425 
  49   1.0000      -5.749130      -156.4418 
  50   1.0000      -5.748865      -156.4346 
  51   1.0000      -5.748406      -156.4221 
  52   1.0000      -5.747514      -156.3978 
  53   1.0000      -5.747288      -156.3917 
  54   1.0000      -5.747151      -156.3879 
  55   1.0000      -5.746922      -156.3817 
  56   1.0000      -5.744714      -156.3216 
  57   1.0000      -5.744441      -156.3142 
  58   1.0000      -5.742711      -156.2671 
  59   1.0000      -5.742474      -156.2607 
  60   1.0000      -5.742449      -156.2600 
  61   1.0000      -5.741671      -156.2388 
  62   1.0000      -5.740673      -156.2117 
  63   1.0000      -5.740424      -156.2049 
  64   1.0000      -5.739999      -156.1933 
  65   1.0000      -5.739761      -156.1868 
  66   1.0000      -5.737982      -156.1384 
  67   1.0000      -5.737792      -156.1333 
  68   1.0000      -5.660277      -154.0240 
  69   1.0000      -5.659816      -154.0114 
  70   1.0000      -5.657939      -153.9603 
  71   1.0000      -5.657931      -153.9601 
  72   1.0000      -5.653818      -153.8482 
  73   1.0000      -5.653347      -153.8354 
  74   1.0000      -5.652267      -153.8060 
  75   1.0000      -5.651764      -153.7923 
  76   1.0000      -5.651132      -153.7751 
  77   1.0000      -5.651108      -153.7745 
  78   1.0000      -5.649924      -153.7423 
  79   1.0000      -5.649840      -153.7400 
  80   1.0000      -2.444612       -66.5213 
  81   1.0000      -1.484886       -40.4058 
  82   1.0000      -1.474422       -40.1211 
  83   1.0000      -1.473709       -40.1017 
  84   1.0000      -0.712491       -19.3879 
  85   1.0000      -0.706312       -19.2197 
  86   1.0000      -0.686812       -18.6891 
  87   1.0000      -0.683457       -18.5978 
  88   1.0000      -0.648013       -17.6333 
  89   1.0000      -0.632641       -17.2150 
  90   1.0000      -0.629300       -17.1241 
  91   1.0000      -0.619025       -16.8445 
  92   1.0000      -0.614728       -16.7276 
  93   1.0000      -0.578303       -15.7364 
  94   1.0000      -0.573385       -15.6026 
  95   1.0000      -0.572016       -15.5654 
  96   1.0000      -0.570326       -15.5194 
  97   1.0000      -0.498714       -13.5707 
  98   1.0000      -0.496488       -13.5101 
  99   1.0000      -0.494813       -13.4645 
 100   1.0000      -0.492856       -13.4113 
 101   1.0000      -0.480881       -13.0854 
 102   1.0000      -0.475153       -12.9296 
 103   1.0000      -0.446992       -12.1633 
 104   1.0000      -0.444835       -12.1046 
 105   1.0000      -0.416666       -11.3381 
 106   1.0000      -0.410680       -11.1752 
 107   1.0000      -0.354982        -9.6595 
 108   1.0000      -0.354543        -9.6476 
 109   1.0000      -0.326746        -8.8912 
 110   1.0000      -0.325542        -8.8584 
 111   1.0000      -0.319573        -8.6960 
 112   1.0000      -0.313431        -8.5289 
 113   1.0000      -0.304051        -8.2737 
 114   1.0000      -0.303124        -8.2484 
 115   1.0000      -0.292444        -7.9578 
 116   1.0000      -0.291351        -7.9281 
 117   1.0000      -0.258044        -7.0217 
 118   1.0000      -0.257643        -7.0108 
 119   1.0000      -0.255535        -6.9534 
 120   1.0000      -0.255091        -6.9414 
 121   1.0000      -0.235126        -6.3981 
 122   1.0000      -0.233377        -6.3505 
 123   1.0000      -0.231873        -6.3096 
 124   1.0000      -0.228671        -6.2224 
 125   1.0000      -0.220419        -5.9979 
 126   1.0000      -0.216471        -5.8905 
 127   1.0000      -0.213844        -5.8190 
 128   1.0000      -0.212973        -5.7953 
 129   1.0000      -0.192484        -5.2377 
 130   1.0000      -0.187756        -5.1091 
 131   1.0000      -0.184791        -5.0284 
 132   1.0000      -0.184488        -5.0202 
 133   1.0000      -0.178920        -4.8687 
 134   1.0000      -0.159775        -4.3477 
 135   1.0000      -0.151504        -4.1226 
 136   1.0000      -0.146561        -3.9881 
 137   1.0000      -0.135247        -3.6803 
 138   1.0000      -0.133521        -3.6333 
 139   1.0000      -0.132592        -3.6080 
 140   1.0000      -0.123813        -3.3691 
 141   1.0000      -0.121932        -3.3179 
 142   1.0000      -0.110301        -3.0014 
 143   1.0000      -0.107955        -2.9376 
 144   1.0000      -0.099265        -2.7011 
 145   1.0000      -0.097824        -2.6619 
 146   1.0000      -0.096986        -2.6391 
 147   1.0000      -0.093128        -2.5341 
 148   1.0000      -0.073538        -2.0011 
 149   1.0000      -0.069692        -1.8964 
 150   1.0000      -0.064623        -1.7585 
 151   1.0000      -0.055268        -1.5039 
 152   1.0000      -0.045416        -1.2358 
 153   1.0000      -0.037239        -1.0133 
 154   1.0000      -0.035297        -0.9605 
 155   1.0000      -0.030105        -0.8192 
 156   1.0000      -0.024045        -0.6543 
 157   1.0000      -0.019293        -0.5250 
 158   1.0000      -0.013683        -0.3723 
 159   1.0000       0.021193         0.5767 
 160   1.0000       0.040854         1.1117 
 161   0.0000       0.136030         3.7016 
 162   0.0000       0.137888         3.7521 
 163   0.0000       0.161480         4.3941 
 164   0.0000       0.162507         4.4220 
 165   0.0000       0.169859         4.6221 
 166   0.0000       0.170160         4.6303 
 167   0.0000       0.172845         4.7033 
 168   0.0000       0.173954         4.7335 
 169   0.0000       0.174167         4.7393 
 170   0.0000       0.176920         4.8142 
 171   0.0000       0.177687         4.8351 
 172   0.0000       0.188899         5.1402 
 173   0.0000       0.190787         5.1916 
 174   0.0000       0.198457         5.4003 
 175   0.0000       0.198722         5.4075 
 176   0.0000       0.200800         5.4641 
 177   0.0000       0.202761         5.5174 
 178   0.0000       0.208917         5.6849 
 179   0.0000       0.213031         5.7969 
 180   0.0000       0.214142         5.8271 
 181   0.0000       0.216538         5.8923 
 182   0.0000       0.216954         5.9036 
 183   0.0000       0.218697         5.9511 
 184   0.0000       0.227697         6.1959 
 185   0.0000       0.229518         6.2455 
 186   0.0000       0.231103         6.2886 
 187   0.0000       0.235229         6.4009 
 188   0.0000       0.236810         6.4439 
 189   0.0000       0.241448         6.5701 
 190   0.0000       0.246563         6.7093 
 191   0.0000       0.247494         6.7346 
 192   0.0000       0.249677         6.7940 
 193   0.0000       0.259602         7.0641 
 194   0.0000       0.261404         7.1132 
 195   0.0000       0.265693         7.2299 
 196   0.0000       0.270832         7.3697 
 197   0.0000       0.273595         7.4449 
 198   0.0000       0.274443         7.4680 
 199   0.0000       0.277665         7.5557 
 200   0.0000       0.286372         7.7926 
 201   0.0000       0.289596         7.8803 
 202   0.0000       0.300905         8.1880 
 203   0.0000       0.308410         8.3923 
 204   0.0000       0.311103         8.4655 
 205   0.0000       0.324037         8.8175 
 206   0.0000       0.332074         9.0362 
 207   0.0000       0.333481         9.0745 
 208   0.0000       0.335479         9.1289 
 209   0.0000       0.343341         9.3428 
 210   0.0000       0.348577         9.4853 
 211   0.0000       0.349140         9.5006 
 212   0.0000       0.352265         9.5856 
 213   0.0000       0.357172         9.7192 
 214   0.0000       0.360176         9.8009 
 215   0.0000       0.370220        10.0742 
 216   0.0000       0.372751        10.1431 
 217   0.0000       0.376537        10.2461 
 218   0.0000       0.382519        10.4089 
 219   0.0000       0.384669        10.4674 
 220   0.0000       0.389670        10.6034 
 221   0.0000       0.392233        10.6732 
 222   0.0000       0.393673        10.7124 
 223   0.0000       0.397296        10.8110 
 224   0.0000       0.400778        10.9057 
 225   0.0000       0.403297        10.9743 
 226   0.0000       0.404845        11.0164 
 227   0.0000       0.408912        11.1271 
 228   0.0000       0.413568        11.2537 
 229   0.0000       0.421641        11.4734 
 230   0.0000       0.423399        11.5213 
 231   0.0000       0.424962        11.5638 
 232   0.0000       0.426567        11.6075 
 233   0.0000       0.433197        11.7879 
 234   0.0000       0.437259        11.8984 
 235   0.0000       0.441436        12.0121 
 236   0.0000       0.449562        12.2332 
 237   0.0000       0.451621        12.2892 
 238   0.0000       0.455210        12.3869 
 239   0.0000       0.465045        12.6545 
 240   0.0000       0.468067        12.7367 
 241   0.0000       0.471789        12.8380 
 242   0.0000       0.473291        12.8789 
 243   0.0000       0.476283        12.9603 
 244   0.0000       0.478115        13.0102 
 245   0.0000       0.478424        13.0186 
 246   0.0000       0.479500        13.0479 
 247   0.0000       0.485911        13.2223 
 248   0.0000       0.487400        13.2628 
 249   0.0000       0.492251        13.3948 
 250   0.0000       0.495602        13.4860 
 251   0.0000       0.502448        13.6723 
 252   0.0000       0.503429        13.6990 
 253   0.0000       0.507708        13.8154 
 254   0.0000       0.510716        13.8973 
 255   0.0000       0.513133        13.9631 
 256   0.0000       0.514033        13.9875 
 257   0.0000       0.516947        14.0668 
 258   0.0000       0.523083        14.2338 
 259   0.0000       0.524269        14.2661 
 260   0.0000       0.526095        14.3158 
 261   0.0000       0.526624        14.3302 
 262   0.0000       0.529279        14.4024 
 263   0.0000       0.529582        14.4107 
 264   0.0000       0.530631        14.4392 
 265   0.0000       0.532413        14.4877 
 266   0.0000       0.536861        14.6087 
 267   0.0000       0.543078        14.7779 
 268   0.0000       0.545531        14.8447 
 269   0.0000       0.551054        14.9949 
 270   0.0000       0.552936        15.0462 
 271   0.0000       0.555594        15.1185 
 272   0.0000       0.560689        15.2571 
 273   0.0000       0.565375        15.3846 
 274   0.0000       0.570188        15.5156 
 275   0.0000       0.572154        15.5691 
 276   0.0000       0.574470        15.6321 
 277   0.0000       0.576852        15.6970 
 278   0.0000       0.580140        15.7864 
 279   0.0000       0.581829        15.8324 
 280   0.0000       0.585262        15.9258 
 281   0.0000       0.588177        16.0051 
 282   0.0000       0.595941        16.2164 
 283   0.0000       0.597329        16.2542 
 284   0.0000       0.603724        16.4282 
 285   0.0000       0.607322        16.5261 
 286   0.0000       0.609528        16.5861 
 287   0.0000       0.613707        16.6998 
 288   0.0000       0.615309        16.7434 
 289   0.0000       0.617245        16.7961 
 290   0.0000       0.621853        16.9215 
 291   0.0000       0.623124        16.9561 
 292   0.0000       0.630552        17.1582 
 293   0.0000       0.632256        17.2046 
 294   0.0000       0.638001        17.3609 
 295   0.0000       0.639128        17.3916 
 296   0.0000       0.643329        17.5059 
 297   0.0000       0.645613        17.5680 
 298   0.0000       0.655477        17.8364 
 299   0.0000       0.660188        17.9646 
 300   0.0000       0.667839        18.1728 
 301   0.0000       0.678331        18.4583 
 302   0.0000       0.689967        18.7750 
 303   0.0000       0.700722        19.0676 
 304   0.0000       0.711594        19.3635 
 305   0.0000       0.713971        19.4281 
 306   0.0000       0.716138        19.4871 
 307   0.0000       0.732694        19.9376 
 308   0.0000       0.735785        20.0217 
 309   0.0000       0.739706        20.1284 
 310   0.0000       0.755890        20.5688 
 311   0.0000       0.761889        20.7320 
 312   0.0000       0.763552        20.7773 
 313   0.0000       0.765706        20.8359 
 314   0.0000       0.770119        20.9560 
 315   0.0000       0.780081        21.2271 
 316   0.0000       0.787692        21.4342 
 317   0.0000       0.793232        21.5849 
 318   0.0000       0.803541        21.8655 
 319   0.0000       0.810005        22.0414 
 320   0.0000       0.819106        22.2890 
 321   0.0000       0.820343        22.3227 
 322   0.0000       0.825875        22.4732 
 323   0.0000       0.829922        22.5833 
 324   0.0000       0.843541        22.9539 
 325   0.0000       0.844318        22.9751 
 326   0.0000       0.852672        23.2024 
 327   0.0000       0.858905        23.3720 
 328   0.0000       0.866312        23.5735 
 329   0.0000       0.871382        23.7115 
 330   0.0000       0.872927        23.7536 
 331   0.0000       0.874544        23.7976 
 332   0.0000       0.874954        23.8087 
 333   0.0000       0.878678        23.9100 
 334   0.0000       0.891189        24.2505 
 335   0.0000       0.891577        24.2610 
 336   0.0000       0.895823        24.3766 
 337   0.0000       0.904943        24.6247 
 338   0.0000       0.918179        24.9849 
 339   0.0000       0.923205        25.1217 
 340   0.0000       0.924219        25.1493 
 341   0.0000       0.934784        25.4368 
 342   0.0000       0.935410        25.4538 
 343   0.0000       0.939719        25.5711 
 344   0.0000       0.942667        25.6513 
 345   0.0000       0.946498        25.7555 
 346   0.0000       0.956440        26.0260 
 347   0.0000       0.958682        26.0871 
 348   0.0000       0.963236        26.2110 
 349   0.0000       0.975209        26.5368 
 350   0.0000       0.977722        26.6052 
 351   0.0000       0.980737        26.6872 
 352   0.0000       0.989468        26.9248 
 353   0.0000       1.007809        27.4239 
 354   0.0000       1.009177        27.4611 
 355   0.0000       1.011580        27.5265 
 356   0.0000       1.013187        27.5702 
 357   0.0000       1.016665        27.6649 
 358   0.0000       1.019736        27.7484 
 359   0.0000       1.021320        27.7915 
 360   0.0000       1.030228        28.0339 
 361   0.0000       1.039185        28.2777 
 362   0.0000       1.042484        28.3674 
 363   0.0000       1.051295        28.6072 
 364   0.0000       1.060745        28.8643 
 365   0.0000       1.061681        28.8898 
 366   0.0000       1.071562        29.1587 
 367   0.0000       1.072002        29.1706 
 368   0.0000       1.073834        29.2205 
 369   0.0000       1.074774        29.2461 
 370   0.0000       1.086911        29.5764 
 371   0.0000       1.095708        29.8157 
 372   0.0000       1.100302        29.9407 
 373   0.0000       1.101469        29.9725 
 374   0.0000       1.110673        30.2229 
 375   0.0000       1.112254        30.2660 
 376   0.0000       1.112806        30.2810 
 377   0.0000       1.124990        30.6125 
 378   0.0000       1.134875        30.8815 
 379   0.0000       1.143738        31.1227 
 380   0.0000       1.144504        31.1435 
 381   0.0000       1.158294        31.5188 
 382   0.0000       1.160034        31.5661 
 383   0.0000       1.166507        31.7423 
 384   0.0000       1.168795        31.8045 
 385   0.0000       1.191979        32.4354 
 386   0.0000       1.209886        32.9227 
 387   0.0000       1.233582        33.5675 
 388   0.0000       1.240612        33.7588 
 389   0.0000       1.241406        33.7804 
 390   0.0000       1.242451        33.8088 
 391   0.0000       1.246053        33.9068 
 392   0.0000       1.274841        34.6902 
 393   0.0000       1.287945        35.0468 
 394   0.0000       1.292949        35.1829 
 395   0.0000       1.303695        35.4753 
 396   0.0000       1.306578        35.5538 
 397   0.0000       1.314528        35.7701 
 398   0.0000       1.320685        35.9377 
 399   0.0000       1.326147        36.0863 
 400   0.0000       1.337231        36.3879 
 401   0.0000       1.349335        36.7173 
 402   0.0000       1.356952        36.9245 
 403   0.0000       1.392951        37.9041 
 404   0.0000       1.400042        38.0971 
 405   0.0000       1.411821        38.4176 
 406   0.0000       1.426652        38.8212 
 407   0.0000       1.428533        38.8724 
 408   0.0000       1.428992        38.8849 
 409   0.0000       1.430346        38.9217 
 410   0.0000       1.442183        39.2438 
 411   0.0000       1.443182        39.2710 
 412   0.0000       1.447751        39.3953 
 413   0.0000       1.485040        40.4100 
 414   0.0000       1.488378        40.5008 
 415   0.0000       1.499043        40.7910 
 416   0.0000       1.500638        40.8344 
[...]
Total number of batches                      ...      301
Average number of points per batch           ...       59
Average number of grid points per atom       ...      444

Memory available               ... 821.9 MB
Memory needed per perturbation ...  41.3 MB
Perturbations treated per batch... 3
Number of batches              ... 1
     CP-SCF ITERATION   0:   4.3249e-02 (   4.8 sec   0/  3 done)
     CP-SCF ITERATION   1:   1.5125e-03 (   4.9 sec   0/  3 done)
     CP-SCF ITERATION   2:   1.4200e-04 (   4.9 sec   3/  3 done)
                    *** THE CP-SCF HAS CONVERGED ***

Forming final perturbed densities           ... done
Transforming perturbed density to AO basis  ... done

 Raw HFC matrix (all values in MHz): 
 -----------------------------------
                -0.0399              -0.0732              -0.0464
                -0.0735               0.0650               0.0915
                -0.0463               0.0910              -0.0197

 A(FC)           0.0016               0.0016               0.0016
 A(SD)          -0.0793              -0.0809               0.1602
 A(ORB+DIA)      0.0005               0.0011              -0.0012    A(PC) =   0.0002
 A(ORB)          0.0005               0.0012              -0.0012    A(PC) =   0.0002
 A(DIA)         -0.0000              -0.0000               0.0000    A(PC) =  -0.0000
             ----------           ----------           ----------
 A(Tot)         -0.0772              -0.0781               0.1607    A(iso)=    0.0018
 Orientation: 
  X          -0.7343365            0.5511776            0.3961731
  Y           0.0558934            0.6307678           -0.7739560
  Z          -0.6764805           -0.5462007           -0.4940030

Notes:  (1) The A matrix conforms to the "SAI" spin Hamiltonian convention.
        (2) Tensor is right-handed.

 Raw EFG matrix (all values in a.u.**-3):
 -----------------------------------
             0.1348      -0.2072       0.0108
            -0.2072       0.0151      -0.0054
             0.0108      -0.0054      -0.1499

 V(El)       0.5478       0.8144      -1.3622
 V(Nuc)     -0.6881      -0.9650       1.6531
         ----------   ----------   ----------
 V(Tot)     -0.1403      -0.1507       0.2910 
 Orientation: 
  X       0.5825974   -0.1489001    0.7990050
  Y       0.7844587   -0.1541509   -0.6007180
  Z       0.2126143    0.9767632    0.0269980

Note: Tensor is right-handed


 Quadrupole tensor eigenvalues (in MHz;Q= 0.0029 I=  1.0)
  e**2qQ            =     0.195383 MHz 
  e**2qQ/(4I*(2I-1))=     0.048846 MHz 
  eta               =     0.035516
  NOTE: the diagonal representation of the SH term I*Q*I = e**2qQ/(4I(2I-1))*[-(1-eta),-(1+eta),2]

 RHO(0)=      0.443637416 a.u.**-3

 -----------------------------------------------------------
 Nucleus  39H : A:ISTP=    1 I=  0.5 P=533.5514 MHz/au**3
                Q:ISTP=    2 I=  1.0 Q=  0.0029 barn     
 -----------------------------------------------------------
 Solving for nuclear perturbation:
Forming RHS of the CP-SCF equations         ... 
Calc. nucleus orbit integrals (SHARK)       ... done

------------------------------------------------------------------------------
                           ORCA CP-SCF CALCULATION
------------------------------------------------------------------------------

Input orbitals are from        ... input_16.gbw
Input Perturbation             ... input_16.pin.tmp
Wavefunction output            ... input_16.pout.tmp
Perturbation mode              ... Imaginary perturbation
Solver                         ... POPLE
Max. number of iterations      ... 64
Convergence tolerance          ... 1.000e-03
Integral handling              ... Direct
DFT GridXC                     ... 1
COSX GridX                     ... 1
COSX IntAccX                   ... 3.067
COSX Algorithm                 ... Auto
Number of perturbations        ... 3
Number of operators            ... 2
Orbital ranges used for CP-SCF:
 Operator 0:  Orbitals   0...160  to 161...680
 Operator 1:  Orbitals   0...159  to 160...680
Variables per perturbation     ... 167080
DFT calculation                         ... on
XC functional terms                     ... off
Hybrid DFT                              ... on
   Exchange mixing (SCF)                ...  0.200
   Exchange mixing (CP-SCF)             ...  0.200
   GGA exch. scaling(SCF)               ...  0.720
   GGA exch. scaling (CP-SCF)           ...  0.720
   GGA corr. scaling (SCF)              ...  0.810
   GGA corr. scaling (CP-SCF)           ...  0.810

CP-SCF GRID
-----------

General Integration Accuracy     IntAcc      ... 3.467
Radial Grid Type                 RadialGrid  ... OptM3 with GC (2021)
Angular Grid (max. ang.)         AngularGrid ... 1 (Lebedev-50)
Angular grid pruning method      GridPruning ... 4 (adaptive)
Weight generation scheme         WeightScheme... Becke
Basis function cutoff            BFCut       ... 1.0000e-10
Integration weight cutoff        WCut        ... 1.0000e-14
Angular grids for H and He will be reduced by one unit
Partially contracted basis set               ... off
Rotationally invariant grid construction     ... off

Total number of grid points                  ...    39380
Total number of batches                      ...      633
Average number of points per batch           ...       62
Average number of grid points per atom       ...      984

CP-SCF GRIDX
------------

General Integration Accuracy     IntAcc      ... 3.067
Radial Grid Type                 RadialGrid  ... OptM3 with GC (2021)
Angular Grid (max. ang.)         AngularGrid ... 1 (Lebedev-50)
Angular grid pruning method      GridPruning ... 4 (adaptive)
Weight generation scheme         WeightScheme... Becke
Basis function cutoff            BFCut       ... 1.0000e-10
Integration weight cutoff        WCut        ... 1.0000e-14
Angular grids for H and He will be reduced by one unit
Partially contracted basis set               ... on
Rotationally invariant grid construction     ... off

Total number of grid points                  ...    17761
Total number of batches                      ...      301
Average number of points per batch           ...       59
Average number of grid points per atom       ...      444

Memory available               ... 819.8 MB
Memory needed per perturbation ...  41.3 MB
Perturbations treated per batch... 3
Number of batches              ... 1
     CP-SCF ITERATION   0:   4.4712e-02 (   4.8 sec   0/  3 done)
     CP-SCF ITERATION   1:   1.8447e-03 (   4.9 sec   1/  3 done)
     CP-SCF ITERATION   2:   1.8177e-04 (   4.0 sec   3/  3 done)
                    *** THE CP-SCF HAS CONVERGED ***

Forming final perturbed densities           ... done
Transforming perturbed density to AO basis  ... done

 Raw HFC matrix (all values in MHz): 
 -----------------------------------
                -0.0978              -0.0928              -0.0525
                -0.0929               0.1301               0.1465
                -0.0526               0.1463              -0.0470

 A(FC)          -0.0052              -0.0052              -0.0052
 A(SD)          -0.1258              -0.1267               0.2525
 A(ORB+DIA)      0.0015               0.0010              -0.0015    A(PC) =   0.0003
 A(ORB)          0.0015               0.0011              -0.0016    A(PC) =   0.0004
 A(DIA)         -0.0001              -0.0001               0.0000    A(PC) =  -0.0000
             ----------           ----------           ----------
 A(Tot)         -0.1296              -0.1309               0.2458    A(iso)=   -0.0049
 Orientation: 
  X           0.0803041            0.9516617            0.2964644
  Y           0.5113833            0.2159643           -0.8317731
  Z          -0.8555924            0.2184018           -0.4693211

Notes:  (1) The A matrix conforms to the "SAI" spin Hamiltonian convention.
        (2) Tensor is right-handed.

 Raw EFG matrix (all values in a.u.**-3):
 -----------------------------------
            -0.0451       0.0159      -0.1792
             0.0159      -0.1423      -0.0257
            -0.1792      -0.0257       0.1873

 V(El)       0.6346       0.4572      -1.0918
 V(Nuc)     -0.7760      -0.6025       1.3786
         ----------   ----------   ----------
 V(Tot)     -0.1415      -0.1453       0.2868 
 Orientation: 
  X       0.7442895    0.4679594    0.4764945
  Y       0.4983995   -0.8641068    0.0701233
  Z       0.4445571    0.1852926   -0.8763764

Note: Tensor is right-handed


 Quadrupole tensor eigenvalues (in MHz;Q= 0.0029 I=  1.0)
  e**2qQ            =     0.192594 MHz 
  e**2qQ/(4I*(2I-1))=     0.048148 MHz 
  eta               =     0.013509
  NOTE: the diagonal representation of the SH term I*Q*I = e**2qQ/(4I(2I-1))*[-(1-eta),-(1+eta),2]

 RHO(0)=      0.442141921 a.u.**-3

 -----------------------------------------------------------
 Nucleus   0V : A:ISTP=   51 I=  3.5 P=140.5173 MHz/au**3
                Q:ISTP=   51 I=  3.5 Q= -0.0430 barn     
 -----------------------------------------------------------
 Solving for nuclear perturbation:
Forming RHS of the CP-SCF equations         ... 
Calc. nucleus orbit integrals (SHARK)       ... done

------------------------------------------------------------------------------
                           ORCA CP-SCF CALCULATION
------------------------------------------------------------------------------

Input orbitals are from        ... input_16.gbw
Input Perturbation             ... input_16.pin.tmp
Wavefunction output            ... input_16.pout.tmp
Perturbation mode              ... Imaginary perturbation
Solver                         ... POPLE
Max. number of iterations      ... 64
Convergence tolerance          ... 1.000e-03
Integral handling              ... Direct
DFT GridXC                     ... 1
COSX GridX                     ... 1
COSX IntAccX                   ... 3.067
COSX Algorithm                 ... Auto
Number of perturbations        ... 3
Number of operators            ... 2
Orbital ranges used for CP-SCF:
 Operator 0:  Orbitals   0...160  to 161...680
 Operator 1:  Orbitals   0...159  to 160...680
Variables per perturbation     ... 167080
DFT calculation                         ... on
XC functional terms                     ... off
Hybrid DFT                              ... on
   Exchange mixing (SCF)                ...  0.200
   Exchange mixing (CP-SCF)             ...  0.200
   GGA exch. scaling(SCF)               ...  0.720
   GGA exch. scaling (CP-SCF)           ...  0.720
   GGA corr. scaling (SCF)              ...  0.810
   GGA corr. scaling (CP-SCF)           ...  0.810

CP-SCF GRID
-----------

General Integration Accuracy     IntAcc      ... 3.467
Radial Grid Type                 RadialGrid  ... OptM3 with GC (2021)
Angular Grid (max. ang.)         AngularGrid ... 1 (Lebedev-50)
Angular grid pruning method      GridPruning ... 4 (adaptive)
Weight generation scheme         WeightScheme... Becke
Basis function cutoff            BFCut       ... 1.0000e-10
Integration weight cutoff        WCut        ... 1.0000e-14
Angular grids for H and He will be reduced by one unit
Partially contracted basis set               ... off
Rotationally invariant grid construction     ... off

Total number of grid points                  ...    39380
Total number of batches                      ...      633
Average number of points per batch           ...       62
Average number of grid points per atom       ...      984

CP-SCF GRIDX
------------

General Integration Accuracy     IntAcc      ... 3.067
Radial Grid Type                 RadialGrid  ... OptM3 with GC (2021)
Angular Grid (max. ang.)         AngularGrid ... 1 (Lebedev-50)
Angular grid pruning method      GridPruning ... 4 (adaptive)
Weight generation scheme         WeightScheme... Becke
Basis function cutoff            BFCut       ... 1.0000e-10
Integration weight cutoff        WCut        ... 1.0000e-14
Angular grids for H and He will be reduced by one unit
Partially contracted basis set               ... on
Rotationally invariant grid construction     ... off

Total number of grid points                  ...    17761
Total number of batches                      ...      301
Average number of points per batch           ...       59
Average number of grid points per atom       ...      444

Memory available               ... 817.6 MB
Memory needed per perturbation ...  41.3 MB
Perturbations treated per batch... 3
Number of batches              ... 1
     CP-SCF ITERATION   0:   1.0538e+01 (   5.1 sec   0/  3 done)
     CP-SCF ITERATION   1:   2.0455e+00 (   4.9 sec   0/  3 done)
     CP-SCF ITERATION   2:   3.4253e-01 (   4.9 sec   0/  3 done)
     CP-SCF ITERATION   3:   4.1477e-02 (   4.9 sec   0/  3 done)
     CP-SCF ITERATION   4:   7.1745e-03 (   4.9 sec   0/  3 done)
     CP-SCF ITERATION   5:   1.9814e-03 (   5.0 sec   0/  3 done)
     CP-SCF ITERATION   6:   3.8913e-04 (   4.9 sec   3/  3 done)
                    *** THE CP-SCF HAS CONVERGED ***

Forming final perturbed densities           ... done
Transforming perturbed density to AO basis  ... done

 Raw HFC matrix (all values in MHz): 
 -----------------------------------
              -177.1920             -97.3717             100.8974
               -97.1251            -185.2607             102.9936
               101.0951             103.4845            -191.2822

 A(FC)        -172.5290            -172.5290            -172.5290
 A(SD)          96.8571              95.1638            -192.0209
 A(ORB+DIA)     -7.2484              -7.6597             -21.2396    A(PC) = -12.0492
 A(ORB)         -7.2480              -7.6601             -21.2394    A(PC) = -12.0492
 A(DIA)         -0.0004               0.0004              -0.0002    A(PC) =  -0.0000
             ----------           ----------           ----------
 A(Tot)        -82.9204             -85.0249            -385.7895    A(iso)= -184.5783
 Orientation: 
  X           0.8290963           -0.0325015           -0.5581604
  Y          -0.3600499            0.7327161           -0.5774870
  Z           0.4277422            0.6797579            0.5957900

Notes:  (1) The A matrix conforms to the "SAI" spin Hamiltonian convention.
        (2) Tensor is right-handed.

 Raw EFG matrix (all values in a.u.**-3):
 -----------------------------------
            -0.0410       0.1681      -0.0107
             0.1681       0.0758      -0.1800
            -0.0107      -0.1800      -0.0348

 V(El)       0.1313      -0.5075       0.3762
 V(Nuc)     -0.1801       0.2804      -0.1002
         ----------   ----------   ----------
 V(Tot)     -0.0488      -0.2271       0.2760 
 Orientation: 
  X       0.7273282    0.5371706    0.4271316
  Y       0.0100497   -0.6306477    0.7760042
  Z       0.6862162   -0.5601172   -0.4640863

Note: Tensor is right-handed


 Quadrupole tensor eigenvalues (in MHz;Q=-0.0430 I=  3.5)
  e**2qQ            =    -2.788336 MHz 
  e**2qQ/(4I*(2I-1))=    -0.033194 MHz 
  eta               =     0.646130
  NOTE: the diagonal representation of the SH term I*Q*I = e**2qQ/(4I(2I-1))*[-(1-eta),-(1+eta),2]

 RHO(0)=   8115.201185132 a.u.**-3


--------------------------------------------------------------------------------
----------------------------------------------------------------------------
                           ORCA EULER ANGLE PROGRAM
----------------------------------------------------------------------------

Only g-tensor available        -->  using g-tensor as reference tensor

Reference tensor               ...  g

g-tensor ordering              ...  |g_min> --> |gx>
                                    |g_mid> --> |gy>
                                    |g_max> --> |gz>

A- and EFG-tensor ordering     ...  the axes |Ax>, |Qx>, |Ay>, etc. are assigned
                                    such that the Euler rotation is minimal. You
                                    can find the respective eigenvalues as Ax,
                                    EFGx, Ay, etc. in the tables below.
                                    The relation of |Ax>, |Ay>,  etc. to Amin, Amid, etc.
                                    (as printed in the ORCA EPR/NMR CALCULATION Output)
                                    is obtained in the detailed printout.

Euler rotation around          ...  z - y - z
   First rotation              -->  by alpha around z
   Second rotation             -->  by beta around y'
   Third rotation              -->  by gamma around z''
   Positive / Negative angle   -->  clockwise / counterclockwise rotation

Plot EFG-tensors                    (-)
Plot HFC-tensors                    (-)
Detailed Printout                   (-)

-------------------------------------------------------------------------
          Euler rotation of hyperfine tensor to g-tensor
-------------------------------------------------------------------------

-------------------------------------------------------------------
 Atom  |   Alpha    Beta    Gamma   |   Ax       Ay       Az 
       |          [degrees]         |           [MHz]         
-------------------------------------------------------------------
 25H     -167.7     36.7    150.3      -0.14     0.27    -0.14
 26H     -160.2     36.6    150.5      -0.09     0.17    -0.09
 27H       11.7      6.9    -28.5      -0.07     0.14    -0.07
 28H        2.8     19.4     -9.6      -0.07     0.15    -0.07
 29H       19.6     46.7    -25.7      -0.09     0.17    -0.09
 30H       31.6     21.2    -49.0      -0.13     0.26    -0.13
 34H      -16.6     20.9     18.8      -0.13     0.25    -0.13
 35H      -68.6     10.9     76.7      -0.08     0.16    -0.08
 36H      175.6     29.6   -161.8      -0.07     0.13    -0.07
 37H       10.4     16.9     -5.4      -0.06     0.14    -0.06
 38H       90.0     15.4    -79.2      -0.08     0.16    -0.08
 39H      157.6     33.7   -156.5      -0.13     0.25    -0.13
  0V      -92.6      8.0     99.2    -385.79   -85.02   -82.92
-------------------------------------------------------------------


-------------------------------------------------------------------------------
    Euler rotation of Electric Field Gradient (EFG) tensor to g-tensor
-------------------------------------------------------------------------------

-------------------------------------------------------------------
 Atom  |   Alpha    Beta    Gamma  |   EFGx     EFGy     EFGz
       |          [degrees]        |         [a.u.**-3]       
-------------------------------------------------------------------
 25H       -2.8     36.7     45.0     -0.14     0.29    -0.14
 26H      147.6     37.2   -108.1     -0.14    -0.15     0.29
 27H     -160.5      2.1   -171.0      0.28    -0.14    -0.14
 28H      168.6      2.3    146.6      0.28    -0.15    -0.14
 29H      -41.1     37.5     82.8     -0.14    -0.15     0.29
 30H       95.7     38.8   -138.6      0.28    -0.14    -0.14
 34H      -90.3     36.2     62.2      0.29    -0.15    -0.14
 35H       57.4     39.7    -88.7     -0.15    -0.14     0.29
 36H      116.7      5.1   -146.2      0.28    -0.15    -0.14
 37H     -175.4      5.2   -140.9      0.28    -0.14    -0.14
 38H     -138.3     35.0    105.4     -0.15    -0.14     0.29
 39H       97.1     44.9   -122.3      0.29    -0.15    -0.14
  0V      107.2     18.8    -85.0      0.28    -0.23    -0.05
-------------------------------------------------------------------


Maximum memory used throughout the entire EPRNMR-calculation: 307.9 MB

Timings for individual modules:

Sum of individual times         ...     3722.612 sec (=  62.044 min)
GTO integral calculation        ...        1.332 sec (=   0.022 min)   0.0 %
Spin-Orbit-Coupling Matrices    ...       10.391 sec (=   0.173 min)   0.3 %
SCF iterations                  ...      210.770 sec (=   3.513 min)   5.7 %
EPR/NMR calculation             ...     3500.119 sec (=  58.335 min)  94.0 %
                             ****ORCA TERMINATED NORMALLY****
TOTAL RUN TIME: 0 days 1 hours 2 minutes 3 seconds 685 msec
