
                                 *****************
                                 * O   R   C   A *
                                 *****************

                                            #,                                       
                                            ###                                      
                                            ####                                     
                                            #####                                    
                                            ######                                   
                                           ########,                                 
                                     ,,################,,,,,                         
                               ,,#################################,,                 
                          ,,##########################################,,             
                       ,#########################################, ''#####,          
                    ,#############################################,,   '####,        
                  ,##################################################,,,,####,       
                ,###########''''           ''''###############################       
              ,#####''   ,,,,##########,,,,          '''####'''          '####       
            ,##' ,,,,###########################,,,                        '##       
           ' ,,###''''                  '''############,,,                           
         ,,##''                                '''############,,,,        ,,,,,,###''
      ,#''                                            '''#######################'''  
     '                                                          ''''####''''         
             ,#######,   #######,   ,#######,      ##                                
            ,#'     '#,  ##    ##  ,#'     '#,    #''#        ######   ,####,        
            ##       ##  ##   ,#'  ##            #'  '#       #        #'  '#        
            ##       ##  #######   ##           ,######,      #####,   #    #        
            '#,     ,#'  ##    ##  '#,     ,#' ,#      #,         ##   #,  ,#        
             '#######'   ##     ##  '#######'  #'      '#     #####' # '####'        



                  #######################################################
                  #                        -***-                        #
                  #          Department of theory and spectroscopy      #
                  #    Directorship and core code : Frank Neese         #
                  #        Max Planck Institute fuer Kohlenforschung    #
                  #                Kaiser Wilhelm Platz 1               #
                  #                 D-45470 Muelheim/Ruhr               #
                  #                      Germany                        #
                  #                                                     #
                  #                  All rights reserved                #
                  #                        -***-                        #
                  #######################################################


                         Program Version 5.0.4 -  RELEASE  -


 With contributions from (in alphabetic order):
   Daniel Aravena         : Magnetic Suceptibility
   Michael Atanasov       : Ab Initio Ligand Field Theory (pilot matlab implementation)
   Alexander A. Auer      : GIAO ZORA, VPT2 properties, NMR spectrum
   Ute Becker             : Parallelization
   Giovanni Bistoni       : ED, misc. LED, open-shell LED, HFLD
   Martin Brehm           : Molecular dynamics
   Dmytro Bykov           : SCF Hessian
   Vijay G. Chilkuri      : MRCI spin determinant printing, contributions to CSF-ICE
   Dipayan Datta          : RHF DLPNO-CCSD density
   Achintya Kumar Dutta   : EOM-CC, STEOM-CC
   Dmitry Ganyushin       : Spin-Orbit,Spin-Spin,Magnetic field MRCI
   Miquel Garcia          : C-PCM and meta-GGA Hessian, CC/C-PCM, Gaussian charge scheme
   Yang Guo               : DLPNO-NEVPT2, F12-NEVPT2, CIM, IAO-localization
   Andreas Hansen         : Spin unrestricted coupled pair/coupled cluster methods
   Benjamin Helmich-Paris : MC-RPA, TRAH-SCF, COSX integrals
   Lee Huntington         : MR-EOM, pCC
   Robert Izsak           : Overlap fitted RIJCOSX, COSX-SCS-MP3, EOM
   Marcus Kettner         : VPT2
   Christian Kollmar      : KDIIS, OOCD, Brueckner-CCSD(T), CCSD density, CASPT2, CASPT2-K
   Simone Kossmann        : Meta GGA functionals, TD-DFT gradient, OOMP2, MP2 Hessian
   Martin Krupicka        : Initial AUTO-CI
   Lucas Lang             : DCDCAS
   Marvin Lechner         : AUTO-CI (C++ implementation), FIC-MRCC
   Dagmar Lenk            : GEPOL surface, SMD
   Dimitrios Liakos       : Extrapolation schemes; Compound Job, initial MDCI parallelization
   Dimitrios Manganas     : Further ROCIS development; embedding schemes
   Dimitrios Pantazis     : SARC Basis sets
   Anastasios Papadopoulos: AUTO-CI, single reference methods and gradients
   Taras Petrenko         : DFT Hessian,TD-DFT gradient, ASA, ECA, R-Raman, ABS, FL, XAS/XES, NRVS
   Peter Pinski           : DLPNO-MP2, DLPNO-MP2 Gradient
   Christoph Reimann      : Effective Core Potentials
   Marius Retegan         : Local ZFS, SOC
   Christoph Riplinger    : Optimizer, TS searches, QM/MM, DLPNO-CCSD(T), (RO)-DLPNO pert. Triples
   Tobias Risthaus        : Range-separated hybrids, TD-DFT gradient, RPA, STAB
   Michael Roemelt        : Original ROCIS implementation
   Masaaki Saitow         : Open-shell DLPNO-CCSD energy and density
   Barbara Sandhoefer     : DKH picture change effects
   Avijit Sen             : IP-ROCIS
   Kantharuban Sivalingam : CASSCF convergence, NEVPT2, FIC-MRCI
   Bernardo de Souza      : ESD, SOC TD-DFT
   Georgi Stoychev        : AutoAux, RI-MP2 NMR, DLPNO-MP2 response
   Willem Van den Heuvel  : Paramagnetic NMR
   Boris Wezisla          : Elementary symmetry handling
   Frank Wennmohs         : Technical directorship


 We gratefully acknowledge several colleagues who have allowed us to
 interface, adapt or use parts of their codes:
   Stefan Grimme, W. Hujo, H. Kruse, P. Pracht,  : VdW corrections, initial TS optimization,
                  C. Bannwarth, S. Ehlert          DFT functionals, gCP, sTDA/sTD-DF
   Ed Valeev, F. Pavosevic, A. Kumar             : LibInt (2-el integral package), F12 methods
   Garnet Chan, S. Sharma, J. Yang, R. Olivares  : DMRG
   Ulf Ekstrom                                   : XCFun DFT Library
   Mihaly Kallay                                 : mrcc  (arbitrary order and MRCC methods)
   Jiri Pittner, Ondrej Demel                    : Mk-CCSD
   Frank Weinhold                                : gennbo (NPA and NBO analysis)
   Christopher J. Cramer and Donald G. Truhlar   : smd solvation model
   Lars Goerigk                                  : TD-DFT with DH, B97 family of functionals
   V. Asgeirsson, H. Jonsson                     : NEB implementation
   FAccTs GmbH                                   : IRC, NEB, NEB-TS, DLPNO-Multilevel, CI-OPT
                                                   MM, QMMM, 2- and 3-layer-ONIOM, Crystal-QMMM,
                                                   LR-CPCM, SF, NACMEs, symmetry and pop. for TD-DFT,
                                                   nearIR, NL-DFT gradient (VV10), updates on ESD,
                                                   ML-optimized integration grids
   S Lehtola, MJT Oliveira, MAL Marques          : LibXC Library
   Liviu Ungur et al                             : ANISO software


 Your calculation uses the libint2 library for the computation of 2-el integrals
 For citations please refer to: http://libint.valeyev.net

 Your ORCA version has been built with support for libXC version: 5.1.0
 For citations please refer to: https://tddft.org/programs/libxc/

 This ORCA versions uses:
   CBLAS   interface :  Fast vector & matrix operations
   LAPACKE interface :  Fast linear algebra routines
   SCALAPACK package :  Parallel linear algebra routines
   Shared memory     :  Shared parallel matrices
   BLAS/LAPACK       :  OpenBLAS 0.3.15  USE64BITINT DYNAMIC_ARCH NO_AFFINITY Prescott SINGLE_THREADED
        Core in use  :  Prescott
   Copyright (c) 2011-2014, The OpenBLAS Project


================================================================================

----- Orbital basis set information -----
Your calculation utilizes the basis: TZVP 

The basis set includes element-specific modifications.

Your calculation utilizes the basis: CP(PPP) 

----- AuxJ basis set information -----
Your calculation utilizes the auxiliary basis: def2/J
   F. Weigend, Phys. Chem. Chem. Phys. 8, 1057 (2006).

================================================================================
                                        WARNINGS
                       Please study these warnings very carefully!
================================================================================


WARNING: your system is open-shell and RHF/RKS was chosen
  ===> : WILL SWITCH to UHF/UKS


INFO   : the flag for use of the SHARK integral package has been found!

================================================================================
                                       INPUT FILE
================================================================================
NAME = input_75.inp
|  1> ! nofrozencore ReducedPop printbasis
|  2> ! B3LYP TZVP
|  3> 
|  4> %basis
|  5> newgto V "CP(PPP)" end
|  6> end
|  7> 
|  8> %pal
|  9> nprocs 6
| 10> end
| 11> 
| 12> % sym SymThresh 1e-2 end
| 13> * xyz -2 2 
| 14> V -0.1713714772023318 1.082390108720806 -0.19164450637013436
| 15> S -1.375573741846155 0.7826733652817018 1.9478578463245162
| 16> S 1.8947116668325832 0.8743001187573526 1.1555952510794483
| 17> S -2.1072558627573788 -0.05195796114677452 -1.2380961516021793
| 18> S 1.1069572629415643 -0.03840123484052021 -1.978989653763921
| 19> O -0.2695531336657323 2.6236119658158645 -0.5750804483520554
| 20> C 3.0548717178449496 0.6163703305869113 -0.14040899271851648
| 21> C 2.739124722081329 0.24757132783922609 -1.3944875691990977
| 22> C -2.9393236394880606 0.21093931398360136 1.3820549731149587
| 23> C -3.22966020003398 -0.12478119692351565 0.1110027178757692
| 24> S 4.807233382194064 0.7771752387406133 0.22527429895241066
| 25> S 4.1107732323360295 -0.04579888166740718 -2.5148243216253903
| 26> S -4.889895153320783 -0.7355477893345874 -0.1967109098827912
| 27> S -4.2589336333762216 0.004567108587638022 2.583125197624956
| 28> C 5.417378331339733 0.3061861084039386 -1.3712488655631343
| 29> C -5.457090838478949 -0.6690016455478813 1.4738707405102924
| 30> C 6.736775841865062 0.24575073438850548 -1.6920790415724671
| 31> C -6.703502072753955 -1.0829866139480866 1.866169858349904
| 32> S 8.023833943506672 0.6391793375113516 -0.5114442569495926
| 33> S 7.292506873867784 -0.26907698083376713 -3.314514034996612
| 34> S -7.226889817175927 -1.0084776815389818 3.564751724095896
| 35> S -7.864698405398775 -1.7841338696073108 0.7140776539922151
| 36> C -8.01607636758452 -3.4737008965961276 1.4468663806458557
| 37> C -7.479421588646724 -2.8131353170604902 3.872886884033445
| 38> C -8.407756617383022 -3.500658416630307 2.9035551407303117
| 39> H -7.000247850109558 -3.8631033122372256 1.307556477500037
| 40> H -8.701943263631154 -4.079754926122157 0.8445811892052733
| 41> H -8.622834239484419 -4.530049019848751 3.232123540474983
| 42> H -9.357023496613918 -2.9491550732751928 2.9631256685805982
| 43> H -7.806358041462422 -2.970095443112968 4.906725869680572
| 44> H -6.456812485907712 -3.196735319321105 3.773310884942463
| 45> C 8.073269866797453 1.3519247558628729 -3.798720359671313
| 46> C 8.688448112300415 2.1265153199110514 -1.4185295705148175
| 47> C 9.30408595863895 1.6803738879093468 -2.826605741812421
| 48> H 8.158143579687538 3.1265256021196484 -1.541443882359775
| 49> H 9.550464376611245 2.2452640960820656 -0.7132716394693839
| 50> H 10.197869271246182 1.0248851546924163 -2.8437852162079613
| 51> H 9.581304660245966 2.700540909751181 -3.2284988983685925
| 52> H 8.509353705963377 0.9282212256101547 -4.7395209476742615
| 53> H 7.515475371334284 2.3143410273082305 -4.039122194450508
| 54> * 
| 55> 
| 56> % eprnmr
| 57> gtensor true
| 58> Nuclei = all H {aiso,adip,aorb,fgrad,rho}
| 59> Nuclei = all V {aiso,adip,aorb,fgrad,rho}
| 60> end
| 61> 
| 62>                          ****END OF INPUT****
================================================================================

------------------------------------------------------------------------------
                            SYMMETRY HANDLING SETUP
------------------------------------------------------------------------------

------------------
SYMMETRY DETECTION
------------------
The point group will now be determined using a tolerance of 1.0000e-02.
Splitting atom subsets according to nuclear charge, mass and basis set.
Splitting atom subsets according to distance from the molecule's center.
Identifying relative distance patterns of the atoms.
Splitting atom subsets according to atoms' relative distance patterns.
Bring atoms of each subset into input order.
The molecule is neither linear nor planar.
There is at least one atom subset not centered around the molecule's center.
The molecule does not have a center of inversion.
Analyzing the first atom subset for its symmetry.
The subset is an off-center atom pair.
Testing point group C2v.
Test failed.
Testing point group C2.
Test failed.
Testing point group Cs.
Test failed.
Testing point group Cs.
Test failed.
No testing is needed for point group C1.
This point group has been found:    C1
Largest non-degenerate subgroup:    C1


Mass-centered symmetry-perfected Cartesians (point group C1):

Atom          Symmetry-perfected Cartesians (x, y, z; au)
  0      -0.318887371463    2.040144269481   -0.361904426328
  1      -2.594499861487    1.473761706630    3.681169083145
  2       3.585443940674    1.646911177239    2.184009751982
  3      -3.977178687096   -0.103462923111   -2.339411448208
  4       2.096803856530   -0.077844423120   -3.739497261695
  5      -0.504423813553    4.952631491004   -1.086493346576
  6       5.777828708604    1.159494515817   -0.265083337196
  7       5.181153359002    0.462565402160   -2.634948397162
  8      -5.549558909978    0.393340928239    2.611956606993
  9      -6.098215496074   -0.241078894915    0.210015942688
 10       9.089312341806    1.463371753218    0.425957935813
 11       7.773193395385   -0.091823949658   -4.752078037014
 12      -9.235604875750   -1.395260486320   -0.371478541451
 13      -8.043260402012    0.003353978388    4.881650398925
 14      10.242319197687    0.573331284828   -2.591033611582
 15     -10.307449385041   -1.269506499295    2.785463262146
 16      12.735619154357    0.459124979137   -3.197314779738
 17     -12.662825268063   -2.051824713131    3.526801157442
 18      15.167806484904    1.202597292291   -0.966238372619
 19      13.785798608964   -0.513758408785   -6.263272587400
 20     -13.651884766871   -1.911023236347    6.736655699747
 21     -14.857168324476   -3.376801005878    1.349662410180
 22     -15.143231215718   -6.569619971790    2.734432417581
 23     -14.129100655065   -5.321331932973    7.318946764261
 24     -15.883399619903   -6.620562301905    5.487175236502
 25     -13.223593518663   -7.305483893239    2.471174852892
 26     -16.439331813569   -7.714896109954    1.596278351242
 27     -16.289837423209   -8.565828626819    6.108079528280
 28     -17.677254049651   -5.578372021021    5.599747219792
 29     -14.746921014083   -5.617943585158    9.272619313705
 30     -12.196649508834   -6.046230882217    7.130775396467
 31      15.261226841101    2.549490936182   -7.178289933347
 32      16.423745248648    4.013254968153   -2.680381195360
 33      17.587132175905    3.170169844674   -5.341259534813
 34      15.421614914433    5.903000532632   -2.912655582686
 35      18.052719911181    4.237657633854   -1.347636851908
 36      19.276137859802    1.931475655023   -5.373724036545
 37      18.110999601144    5.098006126813   -6.100727535801
 38      16.085305868554    1.748807302029   -8.956145391305
 39      14.207148005667    4.368194116044   -7.632583563172


------------------
SYMMETRY REDUCTION
------------------
ORCA supports only abelian point groups.
It is now checked, if the determined point group is supported:
Point Group ( C1    ) is          ... supported

The point group is C1 - hence turning off symmetry
If this is a round-off problem, please increase the symmetry
        detection tolerance (%method SymThresh)

Storing the symmetry object:
Symmetry file                     ... input_75.sym.tmp
Writing symmetry information      ... done

                       ****************************
                       * Single Point Calculation *
                       ****************************

---------------------------------
CARTESIAN COORDINATES (ANGSTROEM)
---------------------------------
  V     -0.168748    1.079598   -0.191512
  S     -1.372950    0.779881    1.947991
  S      1.897335    0.871508    1.155728
  S     -2.104632   -0.054750   -1.237963
  S      1.109581   -0.041193   -1.978857
  O     -0.266930    2.620820   -0.574948
  C      3.057495    0.613578   -0.140276
  C      2.741748    0.244779   -1.394355
  C     -2.936700    0.208147    1.382188
  C     -3.227037   -0.127573    0.111136
  S      4.809857    0.774383    0.225407
  S      4.113397   -0.048591   -2.514691
  S     -4.887272   -0.738340   -0.196578
  S     -4.256310    0.001775    2.583258
  C      5.420002    0.303394   -1.371116
  C     -5.454467   -0.671794    1.474004
  C      6.739399    0.242958   -1.691946
  C     -6.700879   -1.085779    1.866303
  S      8.026457    0.636387   -0.511311
  S      7.295130   -0.271869   -3.314381
  S     -7.224266   -1.011270    3.564885
  S     -7.862075   -1.786926    0.714211
  C     -8.013453   -3.476493    1.446999
  C     -7.476798   -2.815928    3.873020
  C     -8.405133   -3.503451    2.903688
  H     -6.997624   -3.865896    1.307689
  H     -8.699320   -4.082547    0.844714
  H     -8.620211   -4.532841    3.232256
  H     -9.354400   -2.951947    2.963259
  H     -7.803734   -2.972888    4.906859
  H     -6.454189   -3.199528    3.773444
  C      8.075893    1.349132   -3.798587
  C      8.691072    2.123723   -1.418397
  C      9.306710    1.677582   -2.826473
  H      8.160767    3.123733   -1.541311
  H      9.553088    2.242472   -0.713139
  H     10.200493    1.022093   -2.843652
  H      9.583928    2.697749   -3.228366
  H      8.511977    0.925429   -4.739388
  H      7.518099    2.311549   -4.038989

----------------------------
CARTESIAN COORDINATES (A.U.)
----------------------------
  NO LB      ZA    FRAG     MASS         X           Y           Z
   0 V    23.0000    0    50.940   -0.318887    2.040144   -0.361904
   1 S    16.0000    0    32.060   -2.594500    1.473762    3.681169
   2 S    16.0000    0    32.060    3.585444    1.646911    2.184010
   3 S    16.0000    0    32.060   -3.977179   -0.103463   -2.339411
   4 S    16.0000    0    32.060    2.096804   -0.077844   -3.739497
   5 O     8.0000    0    15.999   -0.504424    4.952631   -1.086493
   6 C     6.0000    0    12.011    5.777829    1.159495   -0.265083
   7 C     6.0000    0    12.011    5.181153    0.462565   -2.634948
   8 C     6.0000    0    12.011   -5.549559    0.393341    2.611957
   9 C     6.0000    0    12.011   -6.098215   -0.241079    0.210016
  10 S    16.0000    0    32.060    9.089312    1.463372    0.425958
  11 S    16.0000    0    32.060    7.773193   -0.091824   -4.752078
  12 S    16.0000    0    32.060   -9.235605   -1.395260   -0.371479
  13 S    16.0000    0    32.060   -8.043260    0.003354    4.881650
  14 C     6.0000    0    12.011   10.242319    0.573331   -2.591034
  15 C     6.0000    0    12.011  -10.307449   -1.269506    2.785463
  16 C     6.0000    0    12.011   12.735619    0.459125   -3.197315
  17 C     6.0000    0    12.011  -12.662825   -2.051825    3.526801
  18 S    16.0000    0    32.060   15.167806    1.202597   -0.966238
  19 S    16.0000    0    32.060   13.785799   -0.513758   -6.263273
  20 S    16.0000    0    32.060  -13.651885   -1.911023    6.736656
  21 S    16.0000    0    32.060  -14.857168   -3.376801    1.349662
  22 C     6.0000    0    12.011  -15.143231   -6.569620    2.734432
  23 C     6.0000    0    12.011  -14.129101   -5.321332    7.318947
  24 C     6.0000    0    12.011  -15.883400   -6.620562    5.487175
  25 H     1.0000    0     1.008  -13.223594   -7.305484    2.471175
  26 H     1.0000    0     1.008  -16.439332   -7.714896    1.596278
  27 H     1.0000    0     1.008  -16.289837   -8.565829    6.108080
  28 H     1.0000    0     1.008  -17.677254   -5.578372    5.599747
  29 H     1.0000    0     1.008  -14.746921   -5.617944    9.272619
  30 H     1.0000    0     1.008  -12.196650   -6.046231    7.130775
  31 C     6.0000    0    12.011   15.261227    2.549491   -7.178290
  32 C     6.0000    0    12.011   16.423745    4.013255   -2.680381
  33 C     6.0000    0    12.011   17.587132    3.170170   -5.341260
  34 H     1.0000    0     1.008   15.421615    5.903001   -2.912656
  35 H     1.0000    0     1.008   18.052720    4.237658   -1.347637
  36 H     1.0000    0     1.008   19.276138    1.931476   -5.373724
  37 H     1.0000    0     1.008   18.111000    5.098006   -6.100728
  38 H     1.0000    0     1.008   16.085306    1.748807   -8.956145
  39 H     1.0000    0     1.008   14.207148    4.368194   -7.632584

--------------------------------
INTERNAL COORDINATES (ANGSTROEM)
--------------------------------
 V      0   0   0     0.000000000000     0.00000000     0.00000000
 S      1   0   0     2.473338540851     0.00000000     0.00000000
 S      1   2   0     2.475289067168    85.72091120     0.00000000
 S      1   2   3     2.475773605089    85.95173936   148.64643805
 S      1   2   3     2.466759063953   145.48962809    75.87611193
 O      1   2   3     1.591234606228   107.20388040   255.28252001
 C      3   1   2     1.758444232705    99.31634246   165.58197684
 C      7   3   1     1.344775797577   124.93360960   342.88875927
 C      2   1   3     1.758501196793   101.18786079   202.39032949
 C      9   2   1     1.346319952828   125.21229467     8.18501347
 S      7   3   1     1.797318527967   118.69747135   165.83744437
 S      8   7   3     1.795171344008   116.57756033   183.46681938
 S     10   9   2     1.795578905877   116.48794279   177.93465815
 S      9   2   1     1.796254354855   118.39174167   186.32608726
 C     12   8   7     1.771687089101    97.36583725     0.20527513
 C     13  10   9     1.765497772625    97.01158773   358.20608348
 C     15  12   8     1.359188812142   123.69051978   180.27247738
 C     16  13  10     1.370701687767   123.47462931   182.44514150
 S     17  15  12     1.790308106840   122.16932941   178.85596959
 S     17  15  12     1.790580873398   121.86644858   357.45369654
 S     18  16  13     1.778951001759   121.88098858   179.52028659
 S     18  16  13     1.779691221647   121.80437431     1.96083263
 C     22  18  16     1.847845054120    99.03043436   117.02923918
 C     21  18  16     1.848109508075    99.11987437   242.80424341
 C     24  21  18     1.508011262092   114.96979605   305.41085849
 H     23  22  18     1.096790347941   101.44242156   295.27864451
 H     23  22  18     1.095656121977   109.81914624   180.88394004
 H     25  24  21     1.101753416529   110.75969756   188.14517850
 H     25  24  21     1.099459955399   105.54454878   303.02070291
 H     24  21  18     1.095603474618   109.75514506   179.51589510
 H     24  21  18     1.096719525829   101.47842496    65.11209214
 C     20  17  15     1.863248036724    96.62569932   115.90143169
 C     19  17  15     1.864586840023    96.35712012   244.17974194
 C     33  19  17     1.600228308514   110.04776428   295.56684346
 H     33  19  17     1.138574279478   125.95152057    69.78326583
 H     33  19  17     1.120072346360    93.01363309   186.55870037
 H     34  33  19     1.108516677191   119.25452356   294.83805264
 H     34  33  19     1.130977042323    98.94568312   176.71574661
 H     32  20  17     1.120178353084    92.99894211   172.98701105
 H     32  20  17     1.138056598275   125.81949731   289.69052248

---------------------------
INTERNAL COORDINATES (A.U.)
---------------------------
 V      0   0   0     0.000000000000     0.00000000     0.00000000
 S      1   0   0     4.673932478680     0.00000000     0.00000000
 S      1   2   0     4.677618439237    85.72091120     0.00000000
 S      1   2   3     4.678534083210    85.95173936   148.64643805
 S      1   2   3     4.661499069238   145.48962809    75.87611193
 O      1   2   3     3.006997620589   107.20388040   255.28252001
 C      3   1   2     3.322978021585    99.31634246   165.58197684
 C      7   3   1     2.541257968946   124.93360960   342.88875927
 C      2   1   3     3.323085668111   101.18786079   202.39032949
 C      9   2   1     2.544175999478   125.21229467     8.18501347
 S      7   3   1     3.396439793280   118.69747135   165.83744437
 S      8   7   3     3.392382203638   116.57756033   183.46681938
 S     10   9   2     3.393152383953   116.48794279   177.93465815
 S      9   2   1     3.394428797539   118.39174167   186.32608726
 C     12   8   7     3.348003393404    97.36583725     0.20527513
 C     13  10   9     3.336307280310    97.01158773   358.20608348
 C     15  12   8     2.568494619237   123.69051978   180.27247738
 C     16  13  10     2.590250801182   123.47462931   182.44514150
 S     17  15  12     3.383192017267   122.16932941   178.85596959
 S     17  15  12     3.383707471360   121.86644858   357.45369654
 S     18  16  13     3.361730198990   121.88098858   179.52028659
 S     18  16  13     3.363129011857   121.80437431     1.96083263
 C     22  18  16     3.491921090207    99.03043436   117.02923918
 C     21  18  16     3.492420835758    99.11987437   242.80424341
 C     24  21  18     2.849728292223   114.96979605   305.41085849
 H     23  22  18     2.072633383937   101.44242156   295.27864451
 H     23  22  18     2.070490007491   109.81914624   180.88394004
 H     25  24  21     2.082012224352   110.75969756   188.14517850
 H     25  24  21     2.077678210917   105.54454878   303.02070291
 H     24  21  18     2.070390518400   109.75514506   179.51589510
 H     24  21  18     2.072499549540   101.47842496    65.11209214
 C     20  17  15     3.521028508975    96.62569932   115.90143169
 C     19  17  15     3.523558480558    96.35712012   244.17974194
 C     33  19  17     3.023993254839   110.04776428   295.56684346
 H     33  19  17     2.151593571340   125.95152057    69.78326583
 H     33  19  17     2.116629984799    93.01363309   186.55870037
 H     34  33  19     2.094792934775   119.25452356   294.83805264
 H     34  33  19     2.137236873742    98.94568312   176.71574661
 H     32  20  17     2.116830308475    92.99894211   172.98701105
 H     32  20  17     2.150615295642   125.81949731   289.69052248

---------------------
BASIS SET INFORMATION
---------------------
There are 5 groups of distinct atoms

 Group   1 Type V   : 17s11p5d1f contracted to 17s7p3d1f pattern {11111111111111111/3311111/311/1}
 Group   2 Type S   : 14s9p1d contracted to 5s4p1d pattern {73211/6111/1}
 Group   3 Type O   : 11s6p1d contracted to 5s3p1d pattern {62111/411/1}
 Group   4 Type C   : 11s6p1d contracted to 5s3p1d pattern {62111/411/1}
 Group   5 Type H   : 5s1p contracted to 3s1p pattern {311/1}

Atom   0V    basis set group =>   1
Atom   1S    basis set group =>   2
Atom   2S    basis set group =>   2
Atom   3S    basis set group =>   2
Atom   4S    basis set group =>   2
Atom   5O    basis set group =>   3
Atom   6C    basis set group =>   4
Atom   7C    basis set group =>   4
Atom   8C    basis set group =>   4
Atom   9C    basis set group =>   4
Atom  10S    basis set group =>   2
Atom  11S    basis set group =>   2
Atom  12S    basis set group =>   2
Atom  13S    basis set group =>   2
Atom  14C    basis set group =>   4
Atom  15C    basis set group =>   4
Atom  16C    basis set group =>   4
Atom  17C    basis set group =>   4
Atom  18S    basis set group =>   2
Atom  19S    basis set group =>   2
Atom  20S    basis set group =>   2
Atom  21S    basis set group =>   2
Atom  22C    basis set group =>   4
Atom  23C    basis set group =>   4
Atom  24C    basis set group =>   4
Atom  25H    basis set group =>   5
Atom  26H    basis set group =>   5
Atom  27H    basis set group =>   5
Atom  28H    basis set group =>   5
Atom  29H    basis set group =>   5
Atom  30H    basis set group =>   5
Atom  31C    basis set group =>   4
Atom  32C    basis set group =>   4
Atom  33C    basis set group =>   4
Atom  34H    basis set group =>   5
Atom  35H    basis set group =>   5
Atom  36H    basis set group =>   5
Atom  37H    basis set group =>   5
Atom  38H    basis set group =>   5
Atom  39H    basis set group =>   5

-------------------------
BASIS SET IN INPUT FORMAT
-------------------------

 # Basis set for element : H 
 NewGTO H 
 S 3 
   1      34.0613410000      0.0254393168
   2       5.1235746000      0.1900859340
   3       1.1646626000      0.8524411390
 S 1 
   1       0.3272304100      1.0000000000
 S 1 
   1       0.1030724100      1.0000000000
 P 1 
   1       0.8000000000      1.0000000000
  end;

 # Basis set for element : C 
 NewGTO C 
 S 6 
   1   13575.3496820000      0.0006064601
   2    2035.2333680000      0.0046978985
   3     463.2256235900      0.0243324735
   4     131.2001959800      0.0973999560
   5      42.8530158900      0.3019558443
   6      15.5841857700      0.6623361013
 S 2 
   1       6.2067138500      0.6559530795
   2       2.5764896500      0.3758563390
 S 1 
   1       0.5769633900      1.0000000000
 S 1 
   1       0.2297283100      1.0000000000
 S 1 
   1       0.0951644400      1.0000000000
 P 4 
   1      34.6972322400      0.0113272290
   2       7.9582622800      0.0761696612
   3       2.3780826900      0.3019225154
   4       0.8143320800      0.7278502776
 P 1 
   1       0.2888754700      1.0000000000
 P 1 
   1       0.1005682400      1.0000000000
 D 1 
   1       0.8000000000      1.0000000000
  end;

 # Basis set for element : O 
 NewGTO O 
 S 6 
   1   27032.3826310000      0.0005722654
   2    4052.3871392000      0.0044353333
   3     922.3272271000      0.0230201034
   4     261.2407098900      0.0928224938
   5      85.3546413500      0.2937849971
   6      31.0350352400      0.6740160462
 S 2 
   1      12.2608607300      0.6383993750
   2       4.9987076000      0.3953458663
 S 1 
   1       1.1703108200      1.0000000000
 S 1 
   1       0.4647474100      1.0000000000
 S 1 
   1       0.1850453600      1.0000000000
 P 4 
   1      63.2749548000      0.0120183316
   2      14.6270493800      0.0830054304
   3       4.4501223500      0.3199174388
   4       1.5275799600      0.7071554258
 P 1 
   1       0.5293511800      1.0000000000
 P 1 
   1       0.1747842100      1.0000000000
 D 1 
   1       1.2000000000      1.0000000000
  end;

 # Basis set for element : S 
 NewGTO S 
 S 7 
   1   60700.9281040000      0.0005238013
   2    9102.6106854000      0.0040506304
   3    2071.4166009000      0.0208270003
   4     586.0247682100      0.0814968475
   5     190.5539502100      0.2374911358
   6      67.6303842600      0.4472617145
   7      25.1273069100      0.3489191913
 S 3 
   1     112.5746301000      0.1004556993
   2      34.7955542200      0.4339117282
   3       6.5115556200     -1.2084330582
 S 2 
   1       3.2399032300      0.6749812922
   2       1.5477160900      0.3470879597
 S 1 
   1       0.4054103000      1.0000000000
 S 1 
   1       0.1455065100      1.0000000000
 P 6 
   1     564.3671602700      0.0025564845
   2     133.4262437900      0.0202874255
   3      42.4682711900      0.0927670112
   4      15.6165275800      0.2650208365
   5       6.1093988500      0.4486298663
   6       2.4404160200      0.3596369916
 P 1 
   1       0.8388220100      1.0000000000
 P 1 
   1       0.3128874700      1.0000000000
 P 1 
   1       0.1077010900      1.0000000000
 D 1 
   1       0.5500000000      1.0000000000
  end;

 # Basis set for element : V 
 NewGTO V 
 S 1 
   1  4239814.9912500000      1.0000000000
 S 1 
   1  1695925.9965000001      1.0000000000
 S 1 
   1  678370.3986000001      1.0000000000
 S 1 
   1  271348.1594400000      1.0000000000
 S 1 
   1   40672.0050780000      1.0000000000
 S 1 
   1    9257.0761385000      1.0000000000
 S 1 
   1    2622.7328773000      1.0000000000
 S 1 
   1     858.5948018500      1.0000000000
 S 1 
   1     314.1941865000      1.0000000000
 S 1 
   1     124.4786212700      1.0000000000
 S 1 
   1      50.4693993090      1.0000000000
 S 1 
   1      12.5138469110      1.0000000000
 S 1 
   1       5.3447758082      1.0000000000
 S 1 
   1       1.5755631295      1.0000000000
 S 1 
   1       0.6306903307      1.0000000000
 S 1 
   1       0.0879544416      1.0000000000
 S 1 
   1       0.0342969197      1.0000000000
 P 3 
   1    1450.0319327000     -0.0222847647
   2     343.7504988400     -0.1817959329
   3     110.8252170800     -0.8607412073
 P 3 
   1      41.8224645460     -0.2522537814
   2      17.0880737100     -0.4620379520
   3       7.2613218939     -0.3990010670
 P 1 
   1       2.9458145262      1.0000000000
 P 1 
   1       1.1650209680      1.0000000000
 P 1 
   1       0.4339937839      1.0000000000
 D 3 
   1      27.3603358640      0.0575501019
   2       7.4542765527      0.3023798347
   3       2.4632270217      0.7724212088
 D 1 
   1       0.8249954244      1.0000000000
 D 1 
   1       0.2526297057      1.0000000000
 P 1 
   1       0.1112480000      1.0000000000
 P 1 
   1       0.0363780000      1.0000000000
 F 1 
   1       1.8000000000      1.0000000000
  end;

---------------------------------
AUXILIARY/J BASIS SET INFORMATION
---------------------------------
There are 5 groups of distinct atoms

 Group   1 Type V   : 19s5p5d3f3g contracted to 8s5p5d2f3g pattern {121111111/11111/11111/21/111}
 Group   2 Type S   : 14s5p5d2f1g contracted to 8s4p3d1f1g pattern {71111111/2111/311/2/1}
 Group   3 Type O   : 12s5p4d2f1g contracted to 6s4p3d1f1g pattern {711111/2111/211/2/1}
 Group   4 Type C   : 12s5p4d2f1g contracted to 6s4p3d1f1g pattern {711111/2111/211/2/1}
 Group   5 Type H   : 5s2p1d contracted to 3s1p1d pattern {311/2/1}

Atom   0V    basis set group =>   1
Atom   1S    basis set group =>   2
Atom   2S    basis set group =>   2
Atom   3S    basis set group =>   2
Atom   4S    basis set group =>   2
Atom   5O    basis set group =>   3
Atom   6C    basis set group =>   4
Atom   7C    basis set group =>   4
Atom   8C    basis set group =>   4
Atom   9C    basis set group =>   4
Atom  10S    basis set group =>   2
Atom  11S    basis set group =>   2
Atom  12S    basis set group =>   2
Atom  13S    basis set group =>   2
Atom  14C    basis set group =>   4
Atom  15C    basis set group =>   4
Atom  16C    basis set group =>   4
Atom  17C    basis set group =>   4
Atom  18S    basis set group =>   2
Atom  19S    basis set group =>   2
Atom  20S    basis set group =>   2
Atom  21S    basis set group =>   2
Atom  22C    basis set group =>   4
Atom  23C    basis set group =>   4
Atom  24C    basis set group =>   4
Atom  25H    basis set group =>   5
Atom  26H    basis set group =>   5
Atom  27H    basis set group =>   5
Atom  28H    basis set group =>   5
Atom  29H    basis set group =>   5
Atom  30H    basis set group =>   5
Atom  31C    basis set group =>   4
Atom  32C    basis set group =>   4
Atom  33C    basis set group =>   4
Atom  34H    basis set group =>   5
Atom  35H    basis set group =>   5
Atom  36H    basis set group =>   5
Atom  37H    basis set group =>   5
Atom  38H    basis set group =>   5
Atom  39H    basis set group =>   5

-------------------------------------
AUXILIARY/J BASIS SET IN INPUT FORMAT
-------------------------------------

 # Auxiliary/J basis set for element : H 
 NewAuxJGTO H 
 S 3 
   1      15.6752927000      0.1007184237
   2       3.6063578000      0.3404257499
   3       1.2080016000      0.6491996172
 S 1 
   1       0.4726794000      1.0000000000
 S 1 
   1       0.2018100000      1.0000000000
 P 2 
   1       2.0281365000      0.5596620919
   2       0.5358730000      0.5596620919
 D 1 
   1       2.2165124000      1.0000000000
  end;

 # Auxiliary/J basis set for element : C 
 NewAuxJGTO C 
 S 7 
   1    1861.0916331000      0.0134602335
   2     642.9939764000      0.0299160374
   3     235.1105725000      0.1008649584
   4      90.7028894000      0.2370970548
   5      36.7794552000      0.3924037254
   6      15.6046273000      0.3195862154
   7       6.8907294000      0.0530104441
 S 1 
   1       3.1478850000     -1.0000000000
 S 1 
   1       1.4777287000      1.0000000000
 S 1 
   1       0.7076466000      1.0000000000
 S 1 
   1       0.3430122000      1.0000000000
 S 1 
   1       0.1669453000      1.0000000000
 P 2 
   1      13.5472892000     -0.6769313712
   2       5.4669419000     -0.3779500978
 P 1 
   1       2.1751721000      1.0000000000
 P 1 
   1       0.8582194000      1.0000000000
 P 1 
   1       0.3376720000      1.0000000000
 D 2 
   1       5.9287253000     -0.3533329857
   2       1.9809209000     -0.7456525731
 D 1 
   1       0.8055417000     -1.0000000000
 D 1 
   1       0.3531244000     -1.0000000000
 F 2 
   1       1.6755626000      0.6311076882
   2       0.5997536000      0.4968166032
 G 1 
   1       1.0024600000     -1.0000000000
  end;

 # Auxiliary/J basis set for element : O 
 NewAuxJGTO O 
 S 7 
   1    2876.8216605000      0.0168151159
   2    1004.7443032000      0.0340137548
   3     369.7579954000      0.1194951309
   4     142.9442404000      0.2664627624
   5      57.8366425000      0.4202764046
   6      24.3864983000      0.2765077335
   7      10.6622662000      0.0057008815
 S 1 
   1       4.8070437000     -1.0000000000
 S 1 
   1       2.2210770000      1.0000000000
 S 1 
   1       1.0447795000      1.0000000000
 S 1 
   1       0.4968425000      1.0000000000
 S 1 
   1       0.2371384000      1.0000000000
 P 2 
   1      64.2613382000     -0.2731534179
   2      16.3006076000     -0.8168011598
 P 1 
   1       4.3550542000      1.0000000000
 P 1 
   1       1.2019554000      1.0000000000
 P 1 
   1       0.3354196000      1.0000000000
 D 2 
   1       9.2146611000     -0.4661230638
   2       2.8435251000     -0.6600908911
 D 1 
   1       0.9955759000     -1.0000000000
 D 1 
   1       0.3649441000     -1.0000000000
 F 2 
   1       2.6420115000      0.5931563945
   2       0.7345613000      0.5931563945
 G 1 
   1       1.3931000000     -1.0000000000
  end;

 # Auxiliary/J basis set for element : S 
 NewAuxJGTO S 
 S 7 
   1    7399.0303145000      0.0295137551
   2    2710.1675859000      0.0559686311
   3    1034.3279062000      0.1764696370
   4     410.4645411000      0.3577969368
   5     168.9762502000      0.4299293578
   6      71.9687889000      0.1259148089
   7      31.6172683000     -0.0646025788
 S 1 
   1      14.2796836000      1.0000000000
 S 1 
   1       6.6060948000      1.0000000000
 S 1 
   1       3.1181477000      1.0000000000
 S 1 
   1       1.4954039000     -1.0000000000
 S 1 
   1       0.7254779000      1.0000000000
 S 1 
   1       0.3544216000      1.0000000000
 S 1 
   1       0.1735525000      1.0000000000
 P 2 
   1      12.6998799000      1.4059102813
   2       4.4295784000     -1.2124994202
 P 1 
   1       1.5232889000      1.0000000000
 P 1 
   1       0.5194667000     -1.0000000000
 P 1 
   1       0.1766547000     -1.0000000000
 D 3 
   1      16.8546461000      1.0295742104
   2       5.0810461000     -0.7461553923
   3       1.5102323000      0.8357028005
 D 1 
   1       0.4451331000      1.0000000000
 D 1 
   1       0.1308362000      1.0000000000
 F 2 
   1       1.0809860000      0.5572698934
   2       0.4161474000      0.5572698934
 G 1 
   1       0.6707100000     -1.0000000000
  end;

 # Auxiliary/J basis set for element : V 
 NewAuxJGTO V 
 S 12 
   1   11942.0842430000      0.0459866720
   2    2430.7110193000      0.1744615821
   3     841.0764301000      0.2900402792
   4     494.7508273000      0.1411212903
   5     291.0298903000      0.2660697186
   6     171.1940483000      0.0446365706
   7      59.2366916000     -0.0408204801
   8      34.8451117000      0.1394665381
   9      20.4971240000      0.2164746715
  10      12.0571314000      0.0864266611
  11       7.0924300000     -0.0568501658
  12       4.1720176000     -0.0126212852
 S 1 
   1       2.4541279000      1.0000000000
 S 1 
   1       1.4436046000      1.0000000000
 S 1 
   1       0.8491792000      1.0000000000
 S 1 
   1       0.2938336000      1.0000000000
 S 1 
   1       0.1728433000      1.0000000000
 S 1 
   1       0.1016725000      1.0000000000
 S 1 
   1       0.0598074000      1.0000000000
 P 1 
   1      16.7130979000     -1.0000000000
 P 1 
   1       4.7454037000     -1.0000000000
 P 1 
   1       1.3889998000      1.0000000000
 P 1 
   1       0.4142440000     -1.0000000000
 P 1 
   1       0.1243234000      1.0000000000
 D 1 
   1       7.7143225000      1.0000000000
 D 1 
   1       3.1170731000      1.0000000000
 D 1 
   1       1.2767950000     -1.0000000000
 D 1 
   1       0.5273386000      1.0000000000
 D 1 
   1       0.2184050000      1.0000000000
 F 2 
   1       3.1309344000     -1.0825667766
   2       1.0419780000      0.1809223232
 F 1 
   1       0.3559044000      1.0000000000
 G 1 
   1       8.7130110000      1.0000000000
 G 1 
   1       2.7493872000      1.0000000000
 G 1 
   1       0.8775089000      1.0000000000
  end;



           ************************************************************
           *        Program running with 6 parallel MPI-processes     *
           *              working on a common directory               *
           ************************************************************
------------------------------------------------------------------------------
                           ORCA GTO INTEGRAL CALCULATION
                           -- RI-GTO INTEGRALS CHOSEN --
------------------------------------------------------------------------------
------------------------------------------------------------------------------
                   ___                                                        
                  /   \      - P O W E R E D   B Y -                         
                 /     \                                                     
                 |  |  |   _    _      __       _____    __    __             
                 |  |  |  | |  | |    /  \     |  _  \  |  |  /  |          
                  \  \/   | |  | |   /    \    | | | |  |  | /  /          
                 / \  \   | |__| |  /  /\  \   | |_| |  |  |/  /          
                |  |  |   |  __  | /  /__\  \  |    /   |      \           
                |  |  |   | |  | | |   __   |  |    \   |  |\   \          
                \     /   | |  | | |  |  |  |  | |\  \  |  | \   \       
                 \___/    |_|  |_| |__|  |__|  |_| \__\ |__|  \__/        
                                                                              
                      - O R C A' S   B I G   F R I E N D -                    
                                      &                                       
                       - I N T E G R A L  F E E D E R -                       
                                                                              
 v1 FN, 2020, v2 2021                                                         
------------------------------------------------------------------------------


Reading SHARK input file input_75.SHARKINP.tmp ... ok
----------------------
SHARK INTEGRAL PACKAGE
----------------------

Number of atoms                             ...     40
Number of basis functions                   ...    681
Number of shells                            ...    331
Maximum angular momentum                    ...      3
Integral batch strategy                     ... SHARK/LIBINT Hybrid
RI-J (if used) integral strategy            ... SPLIT-RIJ (Revised 2003 algorithm where possible)
Printlevel                                  ...      1
Contraction scheme used                     ... SEGMENTED contraction
Coulomb Range Separation                    ... NOT USED
Exchange Range Separation                   ... NOT USED
Finite Nucleus Model                        ... NOT USED
Auxiliary Coulomb fitting basis             ... AVAILABLE
   # of basis functions in Aux-J            ...   1568
   # of shells in Aux-J                     ...    512
   Maximum angular momentum in Aux-J        ...      4
Auxiliary J/K fitting basis                 ... NOT available
Auxiliary Correlation fitting basis         ... NOT available
Auxiliary 'external' fitting basis          ... NOT available
Integral threshold                          ...     1.000000e-10
Primitive cut-off                           ...     1.000000e-11
Primitive pair pre-selection threshold      ...     1.000000e-11

Calculating pre-screening integrals         ... done (  0.1 sec) Dimension = 331
Organizing shell pair data                  ... done (  0.1 sec)
Shell pair information
Total number of shell pairs                 ...     54946
Shell pairs after pre-screening             ...     22671
Total number of primitive shell pairs       ...    221635
Primitive shell pairs kept                  ...     55322
          la=0 lb=0:   6403 shell pairs
          la=1 lb=0:   9077 shell pairs
          la=1 lb=1:   3199 shell pairs
          la=2 lb=0:   2130 shell pairs
          la=2 lb=1:   1542 shell pairs
          la=2 lb=2:    196 shell pairs
          la=3 lb=0:     55 shell pairs
          la=3 lb=1:     56 shell pairs
          la=3 lb=2:     12 shell pairs
          la=3 lb=3:      1 shell pairs

Calculating one electron integrals          ... done (  0.0 sec)
Calculating RI/J V-Matrix + Cholesky decomp.... done (  0.2 sec)
Calculating Nuclear repulsion               ... done (  0.0 sec) ENN=   5059.047672132866 Eh

SHARK setup successfully completed in   0.7 seconds

Maximum memory used throughout the entire GTOINT-calculation: 41.8 MB


           ************************************************************
           *        Program running with 6 parallel MPI-processes     *
           *              working on a common directory               *
           ************************************************************
-------------------------------------------------------------------------------
                                 ORCA SCF
-------------------------------------------------------------------------------

------------
SCF SETTINGS
------------
Hamiltonian:
 Density Functional     Method          .... DFT(GTOs)
 Exchange Functional    Exchange        .... B88
   X-Alpha parameter    XAlpha          ....  0.666667
   Becke's b parameter  XBeta           ....  0.004200
 Correlation Functional Correlation     .... LYP
 LDA part of GGA corr.  LDAOpt          .... VWN-5
 Gradients option       PostSCFGGA      .... off
 Hybrid DFT is turned on
   Fraction HF Exchange ScalHFX         ....  0.200000
   Scaling of DF-GGA-X  ScalDFX         ....  0.720000
   Scaling of DF-GGA-C  ScalDFC         ....  0.810000
   Scaling of DF-LDA-C  ScalLDAC        ....  1.000000
   Perturbative correction              ....  0.000000
   Density functional embedding theory  .... OFF
   NL short-range parameter             ....  4.800000
 RI-approximation to the Coulomb term is turned on
   Number of AuxJ basis functions       .... 1568
   RIJ-COSX (HFX calculated with COS-X)).... on


General Settings:
 Integral files         IntName         .... input_75
 Hartree-Fock type      HFTyp           .... UHF
 Total Charge           Charge          ....   -2
 Multiplicity           Mult            ....    2
 Number of Electrons    NEL             ....  321
 Basis Dimension        Dim             ....  681
 Nuclear Repulsion      ENuc            ....   5059.0476721329 Eh

Convergence Acceleration:
 DIIS                   CNVDIIS         .... on
   Start iteration      DIISMaxIt       ....    12
   Startup error        DIISStart       ....  0.200000
   # of expansion vecs  DIISMaxEq       ....     5
   Bias factor          DIISBfac        ....   1.050
   Max. coefficient     DIISMaxC        ....  10.000
 Trust-Rad. Augm. Hess. CNVTRAH         .... auto
   Auto Start mean grad. ratio tolernc. ....  1.125000
   Auto Start start iteration           ....    20
   Auto Start num. interpolation iter.  ....    10
   Max. Number of Micro iterations      ....    16
   Max. Number of Macro iterations      .... Maxiter - #DIIS iter
   Number of Davidson start vectors     ....     2
   Converg. threshold I  (grad. norm)   ....   5.000e-05
   Converg. threshold II (energy diff.) ....   1.000e-06
   Grad. Scal. Fac. for Micro threshold ....   0.100
   Minimum threshold for Micro iter.    ....   0.010
   NR start threshold (gradient norm)   ....   0.001
   Initial trust radius                 ....   0.400
   Minimum AH scaling param. (alpha)    ....   1.000
   Maximum AH scaling param. (alpha)    .... 1000.000
   Orbital update algorithm             .... Taylor
   White noise on init. David. guess    .... on
   Maximum white noise                  ....   0.010
   Quad. conv. algorithm                .... NR
 SOSCF                  CNVSOSCF        .... off
 Level Shifting         CNVShift        .... on
   Level shift para.    LevelShift      ....    0.2500
   Turn off err/grad.   ShiftErr        ....    0.0010
 Zerner damping         CNVZerner       .... off
 Static damping         CNVDamp         .... on
   Fraction old density DampFac         ....    0.7000
   Max. Damping (<1)    DampMax         ....    0.9800
   Min. Damping (>=0)   DampMin         ....    0.0000
   Turn off err/grad.   DampErr         ....    0.1000
 Fernandez-Rico         CNVRico         .... off

SCF Procedure:
 Maximum # iterations   MaxIter         ....   125
 SCF integral mode      SCFMode         .... Direct
   Integral package                     .... SHARK and LIBINT hybrid scheme
 Reset frequency        DirectResetFreq ....    20
 Integral Threshold     Thresh          ....  1.000e-10 Eh
 Primitive CutOff       TCut            ....  1.000e-11 Eh

Convergence Tolerance:
 Convergence Check Mode ConvCheckMode   .... Total+1el-Energy
 Convergence forced     ConvForced      .... 0
 Energy Change          TolE            ....  1.000e-06 Eh
 1-El. energy change                    ....  1.000e-03 Eh
 DIIS Error             TolErr          ....  1.000e-06


Diagonalization of the overlap matrix:
Smallest eigenvalue                        ... 8.306e-05
Time for diagonalization                   ...    0.239 sec
Threshold for overlap eigenvalues          ... 1.000e-08
Number of eigenvalues below threshold      ... 0
Time for construction of square roots      ...    0.157 sec
Total time needed                          ...    0.400 sec

Time for model grid setup =    0.388 sec

------------------------------
INITIAL GUESS: MODEL POTENTIAL
------------------------------
Loading Hartree-Fock densities                     ... done
Calculating cut-offs                               ... done
Initializing the effective Hamiltonian             ... done
Setting up the integral package (SHARK)            ... done
Starting the Coulomb interaction                   ... done (   0.4 sec)
Reading the grid                                   ... done
Mapping shells                                     ... done
Starting the XC term evaluation                    ... done (   0.2 sec)
  promolecular density results
     # of electrons  =    318.996062444
     EX              =   -428.210942933
     EC              =    -12.532904868
     EX+EC           =   -440.743847801
Transforming the Hamiltonian                       ... done (   0.2 sec)
Diagonalizing the Hamiltonian                      ... done (   0.2 sec)
Back transforming the eigenvectors                 ... done (   0.1 sec)
Now organizing SCF variables                       ... done
                      ------------------
                      INITIAL GUESS DONE (   1.5 sec)
                      ------------------
-------------------
DFT GRID GENERATION
-------------------

General Integration Accuracy     IntAcc      ... 4.388
Radial Grid Type                 RadialGrid  ... OptM3 with GC (2021)
Angular Grid (max. ang.)         AngularGrid ... 4 (Lebedev-302)
Angular grid pruning method      GridPruning ... 4 (adaptive)
Weight generation scheme         WeightScheme... Becke
Basis function cutoff            BFCut       ... 1.0000e-10
Integration weight cutoff        WCut        ... 1.0000e-14
Angular grids for H and He will be reduced by one unit
Partially contracted basis set               ... off
Rotationally invariant grid construction     ... off

Total number of grid points                  ...   237265
Total number of batches                      ...     3728
Average number of points per batch           ...       63
Average number of grid points per atom       ...     5932
Time for grid setup =    1.921 sec

--------------------
COSX GRID GENERATION
--------------------

GRIDX 1
-------
General Integration Accuracy     IntAcc      ... 3.816
Radial Grid Type                 RadialGrid  ... OptM3 with GC (2021)
Angular Grid (max. ang.)         AngularGrid ... 1 (Lebedev-50)
Angular grid pruning method      GridPruning ... 4 (adaptive)
Weight generation scheme         WeightScheme... Becke
Basis function cutoff            BFCut       ... 1.0000e-10
Integration weight cutoff        WCut        ... 1.0000e-14
Angular grids for H and He will be reduced by one unit
Partially contracted basis set               ... on
Rotationally invariant grid construction     ... off

Total number of grid points                  ...    29196
Total number of batches                      ...      481
Average number of points per batch           ...       60
Average number of grid points per atom       ...      730
UseSFitting                                  ... on

GRIDX 2
-------
General Integration Accuracy     IntAcc      ... 4.020
Radial Grid Type                 RadialGrid  ... OptM3 with GC (2021)
Angular Grid (max. ang.)         AngularGrid ... 2 (Lebedev-110)
Angular grid pruning method      GridPruning ... 4 (adaptive)
Weight generation scheme         WeightScheme... Becke
Basis function cutoff            BFCut       ... 1.0000e-10
Integration weight cutoff        WCut        ... 1.0000e-14
Angular grids for H and He will be reduced by one unit
Partially contracted basis set               ... on
Rotationally invariant grid construction     ... off

Total number of grid points                  ...    64043
Total number of batches                      ...     1020
Average number of points per batch           ...       62
Average number of grid points per atom       ...     1601
UseSFitting                                  ... on

GRIDX 3
-------
General Integration Accuracy     IntAcc      ... 4.338
Radial Grid Type                 RadialGrid  ... OptM3 with GC (2021)
Angular Grid (max. ang.)         AngularGrid ... 3 (Lebedev-194)
Angular grid pruning method      GridPruning ... 4 (adaptive)
Weight generation scheme         WeightScheme... Becke
Basis function cutoff            BFCut       ... 1.0000e-10
Integration weight cutoff        WCut        ... 1.0000e-14
Angular grids for H and He will be reduced by one unit
Partially contracted basis set               ... on
Rotationally invariant grid construction     ... off

Total number of grid points                  ...   147232
Total number of batches                      ...     2323
Average number of points per batch           ...       63
Average number of grid points per atom       ...     3681
UseSFitting                                  ... on

Time for X-Grid setup             =    2.168 sec

--------------
SCF ITERATIONS
--------------
ITER       Energy         Delta-E        Max-DP      RMS-DP      [F,P]     Damp
               ***  Starting incremental Fock matrix formation  ***
  0  -6336.8493241700   0.000000000000 0.05298419  0.00066532  0.2313634 0.7000
  1  -6337.1785359624  -0.329211792448 0.11759906  0.00063828  0.1558524 0.7000
                               ***Turning on DIIS***
  2  -6337.3432215359  -0.164685573484 0.05847273  0.00034054  0.1090532 0.7000
  3  -6337.4331536938  -0.089932157870 0.04243252  0.00056287  0.0771799 0.0000
  4  -6337.6517150449  -0.218561351152 0.08149047  0.00034897  0.0125941 0.0000
  5  -6337.6575782076  -0.005863162626 0.01511194  0.00008630  0.0095021 0.0000
  6  -6337.6588572809  -0.001279073294 0.00408604  0.00004021  0.0040340 0.0000
  7  -6337.6592345484  -0.000377267587 0.00222474  0.00002355  0.0014306 0.0000
  8  -6337.6594062683  -0.000171719840 0.00290671  0.00001976  0.0014738 0.0000
  9  -6337.6595182773  -0.000112008989 0.00184211  0.00001576  0.0010779 0.0000
 10  -6337.6595908203  -0.000072543079 0.00328990  0.00003668  0.0006434 0.0000
               *** Restarting incremental Fock matrix formation ***
                                   *** Resetting DIIS ***
 11  -6337.6596918291  -0.000101008727 0.00101517  0.00001070  0.0007766 0.0000
 12  -6337.6596655136   0.000026315470 0.00038881  0.00000260  0.0023125 0.0000
 13  -6337.6596954397  -0.000029926056 0.00050589  0.00000470  0.0007805 0.0000
 14  -6337.6597002763  -0.000004836617 0.00020200  0.00000238  0.0002465 0.0000
 15  -6337.6597010645  -0.000000788273 0.00015259  0.00000147  0.0001612 0.0000
 16  -6337.6597015747  -0.000000510126 0.00010370  0.00000098  0.0000908 0.0000
 17  -6337.6597018927  -0.000000318005 0.00006639  0.00000071  0.0000730 0.0000
                 **** Energy Check signals convergence ****

               *****************************************************
               *                     SUCCESS                       *
               *           SCF CONVERGED AFTER  18 CYCLES          *
               *****************************************************

Old exchange energy                            =    -85.904031021 Eh
New exchange energy                            =    -85.904010696 Eh
Exchange energy change after final integration =      0.000020325 Eh
Total energy after final integration           =  -6337.659681541 Eh
Final COS-X integration done in                =    28.287 sec

----------------
TOTAL SCF ENERGY
----------------

Total Energy       :        -6337.65968154 Eh         -172456.48745 eV

Components:
Nuclear Repulsion  :         5059.04767213 Eh          137663.68585 eV
Electronic Energy  :       -11396.70735367 Eh         -310120.17330 eV
One Electron Energy:       -18888.50987957 Eh         -513982.48419 eV
Two Electron Energy:         7491.80252590 Eh          203862.31089 eV
Max COSX asymmetry :            0.00000119 Eh               0.00003 eV

Virial components:
Potential Energy   :       -12658.56775385 Eh         -344457.14044 eV
Kinetic Energy     :         6320.90807231 Eh          172000.65299 eV
Virial Ratio       :            2.00265019


DFT components:
N(Alpha)           :      160.999868164891 electrons
N(Beta)            :      159.999866984612 electrons
N(Total)           :      320.999735149503 electrons
E(X)               :     -341.382662464085 Eh       
E(C)               :      -14.716274695216 Eh       
E(XC)              :     -356.098937159301 Eh       
DFET-embed. en.    :        0.000000000000 Eh       

---------------
SCF CONVERGENCE
---------------

  Last Energy change         ...    2.6985e-08  Tolerance :   1.0000e-06
  Last MAX-Density change    ...    0.0000e+00  Tolerance :   1.0000e-05
  Last RMS-Density change    ...    0.0000e+00  Tolerance :   1.0000e-06
  Last DIIS Error            ...    1.4283e-05  Tolerance :   1.0000e-06

             **** THE GBW FILE WAS UPDATED (input_75.gbw) ****
             **** DENSITY input_75.scfp WAS UPDATED ****
             **** ENERGY FILE WAS UPDATED (input_75.en.tmp) ****
----------------------
UHF SPIN CONTAMINATION
----------------------

Warning: in a DFT calculation there is little theoretical justification to 
         calculate <S**2> as in Hartree-Fock theory. We will do it anyways
         but you should keep in mind that the values have only limited relevance

Expectation value of <S**2>     :     0.765811
Ideal value S*(S+1) for S=0.5   :     0.750000
Deviation                       :     0.015811

             **** THE GBW FILE WAS UPDATED (input_75.gbw) ****
             **** DENSITY input_75.scfp WAS UPDATED ****
----------------
ORBITAL ENERGIES
----------------
                 SPIN UP ORBITALS
  NO   OCC          E(Eh)            E(eV) 
   0   1.0000    -196.674547     -5351.7865 
   1   1.0000     -88.738380     -2414.6941 
   2   1.0000     -88.738311     -2414.6922 
   3   1.0000     -88.732248     -2414.5272 
   4   1.0000     -88.732138     -2414.5242 
   5   1.0000     -88.730729     -2414.4859 
   6   1.0000     -88.730683     -2414.4846 
   7   1.0000     -88.728496     -2414.4251 
   8   1.0000     -88.728369     -2414.4217 
   9   1.0000     -88.639718     -2412.0094 
  10   1.0000     -88.639175     -2411.9946 
  11   1.0000     -88.638901     -2411.9871 
  12   1.0000     -88.638679     -2411.9811 
  13   1.0000     -22.049937      -600.0093 
  14   1.0000     -18.889269      -514.0031 
  15   1.0000     -18.556384      -504.9449 
  16   1.0000     -18.551213      -504.8042 
  17   1.0000     -18.551116      -504.8015 
  18   1.0000     -10.076689      -274.2006 
  19   1.0000     -10.076011      -274.1822 
  20   1.0000     -10.075985      -274.1815 
  21   1.0000     -10.073674      -274.1186 
  22   1.0000     -10.063954      -273.8541 
  23   1.0000     -10.061775      -273.7948 
  24   1.0000     -10.061763      -273.7945 
  25   1.0000     -10.049197      -273.4526 
  26   1.0000     -10.048504      -273.4337 
  27   1.0000     -10.046040      -273.3666 
  28   1.0000     -10.018185      -272.6087 
  29   1.0000     -10.017395      -272.5872 
  30   1.0000     -10.016860      -272.5726 
  31   1.0000     -10.015915      -272.5469 
  32   1.0000      -7.791167      -212.0084 
  33   1.0000      -7.791125      -212.0073 
  34   1.0000      -7.785859      -211.8640 
  35   1.0000      -7.785756      -211.8612 
  36   1.0000      -7.784010      -211.8137 
  37   1.0000      -7.783991      -211.8132 
  38   1.0000      -7.781692      -211.7506 
  39   1.0000      -7.781605      -211.7482 
  40   1.0000      -7.693984      -209.3640 
  41   1.0000      -7.693540      -209.3519 
  42   1.0000      -7.693232      -209.3435 
  43   1.0000      -7.692939      -209.3355 
  44   1.0000      -5.756147      -156.6327 
  45   1.0000      -5.756102      -156.6315 
  46   1.0000      -5.752873      -156.5436 
  47   1.0000      -5.752822      -156.5423 
  48   1.0000      -5.750868      -156.4891 
  49   1.0000      -5.750756      -156.4860 
  50   1.0000      -5.748958      -156.4371 
  51   1.0000      -5.748936      -156.4365 
  52   1.0000      -5.747410      -156.3950 
  53   1.0000      -5.747313      -156.3923 
  54   1.0000      -5.746643      -156.3741 
  55   1.0000      -5.746544      -156.3714 
  56   1.0000      -5.745958      -156.3555 
  57   1.0000      -5.745915      -156.3543 
  58   1.0000      -5.744520      -156.3163 
  59   1.0000      -5.744496      -156.3157 
  60   1.0000      -5.742210      -156.2535 
  61   1.0000      -5.742121      -156.2510 
  62   1.0000      -5.740614      -156.2101 
  63   1.0000      -5.740510      -156.2072 
  64   1.0000      -5.739825      -156.1886 
  65   1.0000      -5.739821      -156.1885 
  66   1.0000      -5.737518      -156.1258 
  67   1.0000      -5.737441      -156.1237 
  68   1.0000      -5.659307      -153.9976 
  69   1.0000      -5.658853      -153.9852 
  70   1.0000      -5.658532      -153.9765 
  71   1.0000      -5.658264      -153.9692 
  72   1.0000      -5.652641      -153.8162 
  73   1.0000      -5.652190      -153.8039 
  74   1.0000      -5.651888      -153.7957 
  75   1.0000      -5.651612      -153.7882 
  76   1.0000      -5.651308      -153.7799 
  77   1.0000      -5.650841      -153.7672 
  78   1.0000      -5.650545      -153.7591 
  79   1.0000      -5.650237      -153.7508 
  80   1.0000      -2.443446       -66.4895 
  81   1.0000      -1.484481       -40.3948 
  82   1.0000      -1.473123       -40.0857 
  83   1.0000      -1.472316       -40.0638 
  84   1.0000      -0.711458       -19.3598 
  85   1.0000      -0.705230       -19.1903 
  86   1.0000      -0.687957       -18.7203 
  87   1.0000      -0.677265       -18.4293 
  88   1.0000      -0.648748       -17.6533 
  89   1.0000      -0.632672       -17.2159 
  90   1.0000      -0.624808       -17.0019 
  91   1.0000      -0.618718       -16.8362 
  92   1.0000      -0.612417       -16.6647 
  93   1.0000      -0.575199       -15.6520 
  94   1.0000      -0.573750       -15.6125 
  95   1.0000      -0.572141       -15.5687 
  96   1.0000      -0.570195       -15.5158 
  97   1.0000      -0.496504       -13.5106 
  98   1.0000      -0.496442       -13.5089 
  99   1.0000      -0.494329       -13.4514 
 100   1.0000      -0.489901       -13.3309 
 101   1.0000      -0.479117       -13.0374 
 102   1.0000      -0.475058       -12.9270 
 103   1.0000      -0.445228       -12.1153 
 104   1.0000      -0.441070       -12.0021 
 105   1.0000      -0.415667       -11.3109 
 106   1.0000      -0.410589       -11.1727 
 107   1.0000      -0.358934        -9.7671 
 108   1.0000      -0.352277        -9.5860 
 109   1.0000      -0.332778        -9.0553 
 110   1.0000      -0.319417        -8.6918 
 111   1.0000      -0.315120        -8.5748 
 112   1.0000      -0.309237        -8.4148 
 113   1.0000      -0.303535        -8.2596 
 114   1.0000      -0.297485        -8.0950 
 115   1.0000      -0.293793        -7.9945 
 116   1.0000      -0.286002        -7.7825 
 117   1.0000      -0.259356        -7.0574 
 118   1.0000      -0.258694        -7.0394 
 119   1.0000      -0.252153        -6.8614 
 120   1.0000      -0.241388        -6.5685 
 121   1.0000      -0.241080        -6.5601 
 122   1.0000      -0.236794        -6.4435 
 123   1.0000      -0.232744        -6.3333 
 124   1.0000      -0.220260        -5.9936 
 125   1.0000      -0.216669        -5.8959 
 126   1.0000      -0.212931        -5.7941 
 127   1.0000      -0.208245        -5.6666 
 128   1.0000      -0.207550        -5.6477 
 129   1.0000      -0.192130        -5.2281 
 130   1.0000      -0.189229        -5.1492 
 131   1.0000      -0.185848        -5.0572 
 132   1.0000      -0.184045        -5.0081 
 133   1.0000      -0.179062        -4.8725 
 134   1.0000      -0.159013        -4.3270 
 135   1.0000      -0.151191        -4.1141 
 136   1.0000      -0.145752        -3.9661 
 137   1.0000      -0.136019        -3.7013 
 138   1.0000      -0.132417        -3.6033 
 139   1.0000      -0.131021        -3.5653 
 140   1.0000      -0.123506        -3.3608 
 141   1.0000      -0.120385        -3.2758 
 142   1.0000      -0.112243        -3.0543 
 143   1.0000      -0.107806        -2.9335 
 144   1.0000      -0.099476        -2.7069 
 145   1.0000      -0.097460        -2.6520 
 146   1.0000      -0.096859        -2.6357 
 147   1.0000      -0.094623        -2.5748 
 148   1.0000      -0.074004        -2.0138 
 149   1.0000      -0.069241        -1.8841 
 150   1.0000      -0.066334        -1.8050 
 151   1.0000      -0.051820        -1.4101 
 152   1.0000      -0.045087        -1.2269 
 153   1.0000      -0.037675        -1.0252 
 154   1.0000      -0.036622        -0.9965 
 155   1.0000      -0.031192        -0.8488 
 156   1.0000      -0.024432        -0.6648 
 157   1.0000      -0.018658        -0.5077 
 158   1.0000      -0.014741        -0.4011 
 159   1.0000       0.020907         0.5689 
 160   1.0000       0.041792         1.1372 
 161   0.0000       0.132988         3.6188 
 162   0.0000       0.137208         3.7336 
 163   0.0000       0.158360         4.3092 
 164   0.0000       0.160781         4.3751 
 165   0.0000       0.161053         4.3825 
 166   0.0000       0.171198         4.6585 
 167   0.0000       0.171905         4.6778 
 168   0.0000       0.173171         4.7122 
 169   0.0000       0.175451         4.7743 
 170   0.0000       0.175816         4.7842 
 171   0.0000       0.177559         4.8316 
 172   0.0000       0.178036         4.8446 
 173   0.0000       0.189908         5.1677 
 174   0.0000       0.191155         5.2016 
 175   0.0000       0.202396         5.5075 
 176   0.0000       0.202961         5.5229 
 177   0.0000       0.206278         5.6131 
 178   0.0000       0.207179         5.6376 
 179   0.0000       0.208064         5.6617 
 180   0.0000       0.214034         5.8242 
 181   0.0000       0.214969         5.8496 
 182   0.0000       0.217038         5.9059 
 183   0.0000       0.217819         5.9272 
 184   0.0000       0.228380         6.2145 
 185   0.0000       0.229133         6.2350 
 186   0.0000       0.233343         6.3496 
 187   0.0000       0.237547         6.4640 
 188   0.0000       0.240325         6.5396 
 189   0.0000       0.241463         6.5705 
 190   0.0000       0.245507         6.6806 
 191   0.0000       0.247227         6.7274 
 192   0.0000       0.249684         6.7943 
 193   0.0000       0.256831         6.9887 
 194   0.0000       0.259979         7.0744 
 195   0.0000       0.266715         7.2577 
 196   0.0000       0.268065         7.2944 
 197   0.0000       0.273534         7.4433 
 198   0.0000       0.273932         7.4541 
 199   0.0000       0.275441         7.4951 
 200   0.0000       0.282045         7.6748 
 201   0.0000       0.291309         7.9269 
 202   0.0000       0.298315         8.1176 
 203   0.0000       0.303551         8.2600 
 204   0.0000       0.309400         8.4192 
 205   0.0000       0.312500         8.5036 
 206   0.0000       0.322154         8.7663 
 207   0.0000       0.334205         9.0942 
 208   0.0000       0.336527         9.1574 
 209   0.0000       0.342898         9.3307 
 210   0.0000       0.346735         9.4351 
 211   0.0000       0.349476         9.5097 
 212   0.0000       0.355220         9.6660 
 213   0.0000       0.355817         9.6823 
 214   0.0000       0.359833         9.7916 
 215   0.0000       0.369313        10.0495 
 216   0.0000       0.370199        10.0736 
 217   0.0000       0.376607        10.2480 
 218   0.0000       0.377408        10.2698 
 219   0.0000       0.384780        10.4704 
 220   0.0000       0.390784        10.6338 
 221   0.0000       0.392501        10.6805 
 222   0.0000       0.395285        10.7563 
 223   0.0000       0.396464        10.7883 
 224   0.0000       0.400525        10.8988 
 225   0.0000       0.402972        10.9654 
 226   0.0000       0.404527        11.0077 
 227   0.0000       0.410897        11.1811 
 228   0.0000       0.412810        11.2331 
 229   0.0000       0.418256        11.3813 
 230   0.0000       0.421252        11.4629 
 231   0.0000       0.427303        11.6275 
 232   0.0000       0.429623        11.6906 
 233   0.0000       0.433488        11.7958 
 234   0.0000       0.436463        11.8768 
 235   0.0000       0.442011        12.0277 
 236   0.0000       0.445376        12.1193 
 237   0.0000       0.450276        12.2526 
 238   0.0000       0.450760        12.2658 
 239   0.0000       0.462595        12.5879 
 240   0.0000       0.464099        12.6288 
 241   0.0000       0.467016        12.7082 
 242   0.0000       0.470469        12.8021 
 243   0.0000       0.473594        12.8871 
 244   0.0000       0.474733        12.9181 
 245   0.0000       0.477379        12.9901 
 246   0.0000       0.481645        13.1062 
 247   0.0000       0.484877        13.1942 
 248   0.0000       0.485582        13.2134 
 249   0.0000       0.492186        13.3931 
 250   0.0000       0.493644        13.4327 
 251   0.0000       0.499116        13.5816 
 252   0.0000       0.502314        13.6687 
 253   0.0000       0.503985        13.7141 
 254   0.0000       0.508632        13.8406 
 255   0.0000       0.511421        13.9165 
 256   0.0000       0.515432        14.0256 
 257   0.0000       0.519280        14.1303 
 258   0.0000       0.521767        14.1980 
 259   0.0000       0.524655        14.2766 
 260   0.0000       0.525654        14.3038 
 261   0.0000       0.526469        14.3259 
 262   0.0000       0.526874        14.3370 
 263   0.0000       0.527587        14.3564 
 264   0.0000       0.528741        14.3878 
 265   0.0000       0.533794        14.5253 
 266   0.0000       0.534933        14.5563 
 267   0.0000       0.535202        14.5636 
 268   0.0000       0.542113        14.7516 
 269   0.0000       0.546647        14.8750 
 270   0.0000       0.550836        14.9890 
 271   0.0000       0.551109        14.9964 
 272   0.0000       0.553663        15.0659 
 273   0.0000       0.561703        15.2847 
 274   0.0000       0.564596        15.3634 
 275   0.0000       0.570087        15.5128 
 276   0.0000       0.571974        15.5642 
 277   0.0000       0.572934        15.5903 
 278   0.0000       0.574839        15.6422 
 279   0.0000       0.583042        15.8654 
 280   0.0000       0.583232        15.8705 
 281   0.0000       0.585027        15.9194 
 282   0.0000       0.588612        16.0170 
 283   0.0000       0.597044        16.2464 
 284   0.0000       0.599830        16.3222 
 285   0.0000       0.604899        16.4601 
 286   0.0000       0.607190        16.5225 
 287   0.0000       0.609445        16.5838 
 288   0.0000       0.610985        16.6258 
 289   0.0000       0.614213        16.7136 
 290   0.0000       0.621279        16.9059 
 291   0.0000       0.625556        17.0222 
 292   0.0000       0.626571        17.0499 
 293   0.0000       0.634524        17.2663 
 294   0.0000       0.636057        17.3080 
 295   0.0000       0.638233        17.3672 
 296   0.0000       0.642099        17.4724 
 297   0.0000       0.648281        17.6406 
 298   0.0000       0.655855        17.8467 
 299   0.0000       0.658737        17.9252 
 300   0.0000       0.671337        18.2680 
 301   0.0000       0.685013        18.6402 
 302   0.0000       0.689292        18.7566 
 303   0.0000       0.704235        19.1632 
 304   0.0000       0.711738        19.3674 
 305   0.0000       0.717062        19.5123 
 306   0.0000       0.728773        19.8309 
 307   0.0000       0.734900        19.9976 
 308   0.0000       0.735240        20.0069 
 309   0.0000       0.748975        20.3806 
 310   0.0000       0.750049        20.4099 
 311   0.0000       0.758134        20.6299 
 312   0.0000       0.762134        20.7387 
 313   0.0000       0.767808        20.8931 
 314   0.0000       0.770062        20.9545 
 315   0.0000       0.784416        21.3450 
 316   0.0000       0.785947        21.3867 
 317   0.0000       0.793708        21.5979 
 318   0.0000       0.794578        21.6216 
 319   0.0000       0.814401        22.1610 
 320   0.0000       0.820896        22.3377 
 321   0.0000       0.823650        22.4127 
 322   0.0000       0.828125        22.5344 
 323   0.0000       0.830616        22.6022 
 324   0.0000       0.844127        22.9699 
 325   0.0000       0.849664        23.1205 
 326   0.0000       0.856194        23.2982 
 327   0.0000       0.863032        23.4843 
 328   0.0000       0.864465        23.5233 
 329   0.0000       0.868000        23.6195 
 330   0.0000       0.869877        23.6706 
 331   0.0000       0.870484        23.6871 
 332   0.0000       0.875594        23.8261 
 333   0.0000       0.876560        23.8524 
 334   0.0000       0.882719        24.0200 
 335   0.0000       0.886218        24.1152 
 336   0.0000       0.894267        24.3343 
 337   0.0000       0.895432        24.3659 
 338   0.0000       0.903881        24.5959 
 339   0.0000       0.912709        24.8361 
 340   0.0000       0.916628        24.9427 
 341   0.0000       0.928526        25.2665 
 342   0.0000       0.934436        25.4273 
 343   0.0000       0.938457        25.5367 
 344   0.0000       0.941894        25.6302 
 345   0.0000       0.942338        25.6423 
 346   0.0000       0.948903        25.8210 
 347   0.0000       0.955013        25.9872 
 348   0.0000       0.961302        26.1584 
 349   0.0000       0.963901        26.2291 
 350   0.0000       0.982252        26.7284 
 351   0.0000       0.982672        26.7399 
 352   0.0000       0.990626        26.9563 
 353   0.0000       1.002110        27.2688 
 354   0.0000       1.009793        27.4779 
 355   0.0000       1.011732        27.5306 
 356   0.0000       1.013424        27.5767 
 357   0.0000       1.014639        27.6097 
 358   0.0000       1.018486        27.7144 
 359   0.0000       1.020772        27.7766 
 360   0.0000       1.034093        28.1391 
 361   0.0000       1.035965        28.1900 
 362   0.0000       1.042450        28.3665 
 363   0.0000       1.050524        28.5862 
 364   0.0000       1.060649        28.8617 
 365   0.0000       1.062850        28.9216 
 366   0.0000       1.066991        29.0343 
 367   0.0000       1.070965        29.1425 
 368   0.0000       1.079246        29.3678 
 369   0.0000       1.080342        29.3976 
 370   0.0000       1.088201        29.6115 
 371   0.0000       1.094844        29.7922 
 372   0.0000       1.097835        29.8736 
 373   0.0000       1.100364        29.9424 
 374   0.0000       1.106903        30.1204 
 375   0.0000       1.108290        30.1581 
 376   0.0000       1.111750        30.2523 
 377   0.0000       1.117778        30.4163 
 378   0.0000       1.129719        30.7412 
 379   0.0000       1.139467        31.0065 
 380   0.0000       1.141161        31.0526 
 381   0.0000       1.155823        31.4515 
 382   0.0000       1.156105        31.4592 
 383   0.0000       1.164557        31.6892 
 384   0.0000       1.164959        31.7002 
 385   0.0000       1.200118        32.6569 
 386   0.0000       1.207765        32.8650 
 387   0.0000       1.225020        33.3345 
 388   0.0000       1.236404        33.6443 
 389   0.0000       1.239541        33.7296 
 390   0.0000       1.243866        33.8473 
 391   0.0000       1.252312        34.0771 
 392   0.0000       1.277006        34.7491 
 393   0.0000       1.286843        35.0168 
 394   0.0000       1.289399        35.0863 
 395   0.0000       1.298541        35.3351 
 396   0.0000       1.323358        36.0104 
 397   0.0000       1.326279        36.0899 
 398   0.0000       1.334798        36.3217 
 399   0.0000       1.336042        36.3556 
 400   0.0000       1.355008        36.8717 
 401   0.0000       1.358003        36.9531 
 402   0.0000       1.360886        37.0316 
 403   0.0000       1.390613        37.8405 
 404   0.0000       1.410843        38.3910 
 405   0.0000       1.412962        38.4487 
 406   0.0000       1.427842        38.8536 
 407   0.0000       1.429271        38.8925 
 408   0.0000       1.430308        38.9207 
 409   0.0000       1.439021        39.1577 
 410   0.0000       1.442099        39.2415 
 411   0.0000       1.442273        39.2462 
 412   0.0000       1.451069        39.4856 
 413   0.0000       1.471199        40.0334 
 414   0.0000       1.487246        40.4700 
 415   0.0000       1.492775        40.6205 
 416   0.0000       1.499062        40.7915 
 417   0.0000       1.503638        40.9161 
 418   0.0000       1.507208        41.0132 
 419   0.0000       1.508963        41.0610 
[...]
Total number of batches                      ...      300
Average number of points per batch           ...       59
Average number of grid points per atom       ...      445

Memory available               ... 812.7 MB
Memory needed per perturbation ...  48.1 MB
Perturbations treated per batch... 3
Number of batches              ... 1
     CP-SCF ITERATION   0:   4.3721e-02 (   6.2 sec   0/  3 done)
     CP-SCF ITERATION   1:   1.4260e-03 (   6.4 sec   0/  3 done)
     CP-SCF ITERATION   2:   1.5783e-04 (   6.4 sec   3/  3 done)
                    *** THE CP-SCF HAS CONVERGED ***

Forming final perturbed densities           ... done
Transforming perturbed density to AO basis  ... done

 Raw HFC matrix (all values in MHz): 
 -----------------------------------
                 0.1168              -0.0002              -0.1080
                 0.0001              -0.0840               0.0005
                -0.1083               0.0008              -0.0237

 A(FC)           0.0029               0.0029               0.0029
 A(SD)          -0.0855              -0.0883               0.1738
 A(ORB+DIA)      0.0005               0.0012              -0.0012    A(PC) =   0.0002
 A(ORB)          0.0005               0.0012              -0.0012    A(PC) =   0.0002
 A(DIA)         -0.0000              -0.0000               0.0000    A(PC) =  -0.0000
             ----------           ----------           ----------
 A(Tot)         -0.0822              -0.0842               0.1755    A(iso)=    0.0031
 Orientation: 
  X           0.4478906            0.1635541            0.8790017
  Y           0.3468025           -0.9379356           -0.0021915
  Z           0.8240886            0.3058215           -0.4768135

Notes:  (1) The A matrix conforms to the "SAI" spin Hamiltonian convention.
        (2) Tensor is right-handed.

 Raw EFG matrix (all values in a.u.**-3):
 -----------------------------------
            -0.0690      -0.0480      -0.1281
            -0.0480      -0.0725       0.1111
            -0.1281       0.1111       0.1416

 V(El)       0.4319       0.7777      -1.2095
 V(Nuc)     -0.5489      -0.9084       1.4574
         ----------   ----------   ----------
 V(Tot)     -0.1171      -0.1308       0.2478 
 Orientation: 
  X       0.4082645   -0.8223860   -0.3962340
  Y       0.8945174    0.2738235    0.3533544
  Z      -0.1820955   -0.4987002    0.8474310

Note: Tensor is right-handed


 Quadrupole tensor eigenvalues (in MHz;Q= 0.0029 I=  1.0)
  e**2qQ            =     0.166415 MHz 
  e**2qQ/(4I*(2I-1))=     0.041604 MHz 
  eta               =     0.055374
  NOTE: the diagonal representation of the SH term I*Q*I = e**2qQ/(4I(2I-1))*[-(1-eta),-(1+eta),2]

 RHO(0)=      0.431690530 a.u.**-3

 -----------------------------------------------------------
 Nucleus  39H : A:ISTP=    1 I=  0.5 P=533.5514 MHz/au**3
                Q:ISTP=    2 I=  1.0 Q=  0.0029 barn     
 -----------------------------------------------------------
 Solving for nuclear perturbation:
Forming RHS of the CP-SCF equations         ... 
Calc. nucleus orbit integrals (SHARK)       ... done

------------------------------------------------------------------------------
                           ORCA CP-SCF CALCULATION
------------------------------------------------------------------------------

Input orbitals are from        ... input_75.gbw
Input Perturbation             ... input_75.pin.tmp
Wavefunction output            ... input_75.pout.tmp
Perturbation mode              ... Imaginary perturbation
Solver                         ... POPLE
Max. number of iterations      ... 64
Convergence tolerance          ... 1.000e-03
Integral handling              ... Direct
DFT GridXC                     ... 1
COSX GridX                     ... 1
COSX IntAccX                   ... 3.067
COSX Algorithm                 ... Auto
Number of perturbations        ... 3
Number of operators            ... 2
Orbital ranges used for CP-SCF:
 Operator 0:  Orbitals   0...160  to 161...680
 Operator 1:  Orbitals   0...159  to 160...680
Variables per perturbation     ... 167080
DFT calculation                         ... on
XC functional terms                     ... off
Hybrid DFT                              ... on
   Exchange mixing (SCF)                ...  0.200
   Exchange mixing (CP-SCF)             ...  0.200
   GGA exch. scaling(SCF)               ...  0.720
   GGA exch. scaling (CP-SCF)           ...  0.720
   GGA corr. scaling (SCF)              ...  0.810
   GGA corr. scaling (CP-SCF)           ...  0.810

CP-SCF GRID
-----------

General Integration Accuracy     IntAcc      ... 3.467
Radial Grid Type                 RadialGrid  ... OptM3 with GC (2021)
Angular Grid (max. ang.)         AngularGrid ... 1 (Lebedev-50)
Angular grid pruning method      GridPruning ... 4 (adaptive)
Weight generation scheme         WeightScheme... Becke
Basis function cutoff            BFCut       ... 1.0000e-10
Integration weight cutoff        WCut        ... 1.0000e-14
Angular grids for H and He will be reduced by one unit
Partially contracted basis set               ... off
Rotationally invariant grid construction     ... off

Total number of grid points                  ...    39377
Total number of batches                      ...      637
Average number of points per batch           ...       61
Average number of grid points per atom       ...      984

CP-SCF GRIDX
------------

General Integration Accuracy     IntAcc      ... 3.067
Radial Grid Type                 RadialGrid  ... OptM3 with GC (2021)
Angular Grid (max. ang.)         AngularGrid ... 1 (Lebedev-50)
Angular grid pruning method      GridPruning ... 4 (adaptive)
Weight generation scheme         WeightScheme... Becke
Basis function cutoff            BFCut       ... 1.0000e-10
Integration weight cutoff        WCut        ... 1.0000e-14
Angular grids for H and He will be reduced by one unit
Partially contracted basis set               ... on
Rotationally invariant grid construction     ... off

Total number of grid points                  ...    17787
Total number of batches                      ...      300
Average number of points per batch           ...       59
Average number of grid points per atom       ...      445

Memory available               ... 809.9 MB
Memory needed per perturbation ...  48.1 MB
Perturbations treated per batch... 3
Number of batches              ... 1
     CP-SCF ITERATION   0:   4.1560e-02 (   6.2 sec   0/  3 done)
     CP-SCF ITERATION   1:   1.5267e-03 (   6.3 sec   1/  3 done)
     CP-SCF ITERATION   2:   1.6038e-04 (   5.1 sec   3/  3 done)
                    *** THE CP-SCF HAS CONVERGED ***

Forming final perturbed densities           ... done
Transforming perturbed density to AO basis  ... done

 Raw HFC matrix (all values in MHz): 
 -----------------------------------
                 0.1557               0.0522              -0.1451
                 0.0526              -0.1148              -0.0288
                -0.1454              -0.0288              -0.0521

 A(FC)          -0.0041              -0.0041              -0.0041
 A(SD)          -0.1216              -0.1244               0.2460
 A(ORB+DIA)      0.0017               0.0007              -0.0014    A(PC) =   0.0003
 A(ORB)          0.0017               0.0008              -0.0014    A(PC) =   0.0004
 A(DIA)         -0.0000              -0.0001               0.0000    A(PC) =  -0.0000
             ----------           ----------           ----------
 A(Tot)         -0.1240              -0.1278               0.2405    A(iso)=   -0.0037
 Orientation: 
  X           0.3461887            0.3338917           -0.8767381
  Y          -0.8693375            0.4655123           -0.1659836
  Z           0.3527118            0.8196430            0.4514197

Notes:  (1) The A matrix conforms to the "SAI" spin Hamiltonian convention.
        (2) Tensor is right-handed.

 Raw EFG matrix (all values in a.u.**-3):
 -----------------------------------
            -0.0226      -0.1429       0.0380
            -0.1429       0.1239      -0.0545
             0.0380      -0.0545      -0.1013

 V(El)       0.5793       0.4894      -1.0687
 V(Nuc)     -0.6871      -0.6064       1.2935
         ----------   ----------   ----------
 V(Tot)     -0.1078      -0.1169       0.2247 
 Orientation: 
  X       0.6947194   -0.5042080    0.5129711
  Y       0.5401645   -0.1052071   -0.8349574
  Z       0.4749604    0.8571498    0.1992659

Note: Tensor is right-handed


 Quadrupole tensor eigenvalues (in MHz;Q= 0.0029 I=  1.0)
  e**2qQ            =     0.150887 MHz 
  e**2qQ/(4I*(2I-1))=     0.037722 MHz 
  eta               =     0.040873
  NOTE: the diagonal representation of the SH term I*Q*I = e**2qQ/(4I(2I-1))*[-(1-eta),-(1+eta),2]

 RHO(0)=      0.414298179 a.u.**-3

 -----------------------------------------------------------
 Nucleus   0V : A:ISTP=   51 I=  3.5 P=140.5173 MHz/au**3
                Q:ISTP=   51 I=  3.5 Q= -0.0430 barn     
 -----------------------------------------------------------
 Solving for nuclear perturbation:
Forming RHS of the CP-SCF equations         ... 
Calc. nucleus orbit integrals (SHARK)       ... done

------------------------------------------------------------------------------
                           ORCA CP-SCF CALCULATION
------------------------------------------------------------------------------

Input orbitals are from        ... input_75.gbw
Input Perturbation             ... input_75.pin.tmp
Wavefunction output            ... input_75.pout.tmp
Perturbation mode              ... Imaginary perturbation
Solver                         ... POPLE
Max. number of iterations      ... 64
Convergence tolerance          ... 1.000e-03
Integral handling              ... Direct
DFT GridXC                     ... 1
COSX GridX                     ... 1
COSX IntAccX                   ... 3.067
COSX Algorithm                 ... Auto
Number of perturbations        ... 3
Number of operators            ... 2
Orbital ranges used for CP-SCF:
 Operator 0:  Orbitals   0...160  to 161...680
 Operator 1:  Orbitals   0...159  to 160...680
Variables per perturbation     ... 167080
DFT calculation                         ... on
XC functional terms                     ... off
Hybrid DFT                              ... on
   Exchange mixing (SCF)                ...  0.200
   Exchange mixing (CP-SCF)             ...  0.200
   GGA exch. scaling(SCF)               ...  0.720
   GGA exch. scaling (CP-SCF)           ...  0.720
   GGA corr. scaling (SCF)              ...  0.810
   GGA corr. scaling (CP-SCF)           ...  0.810

CP-SCF GRID
-----------

General Integration Accuracy     IntAcc      ... 3.467
Radial Grid Type                 RadialGrid  ... OptM3 with GC (2021)
Angular Grid (max. ang.)         AngularGrid ... 1 (Lebedev-50)
Angular grid pruning method      GridPruning ... 4 (adaptive)
Weight generation scheme         WeightScheme... Becke
Basis function cutoff            BFCut       ... 1.0000e-10
Integration weight cutoff        WCut        ... 1.0000e-14
Angular grids for H and He will be reduced by one unit
Partially contracted basis set               ... off
Rotationally invariant grid construction     ... off

Total number of grid points                  ...    39377
Total number of batches                      ...      637
Average number of points per batch           ...       61
Average number of grid points per atom       ...      984

CP-SCF GRIDX
------------

General Integration Accuracy     IntAcc      ... 3.067
Radial Grid Type                 RadialGrid  ... OptM3 with GC (2021)
Angular Grid (max. ang.)         AngularGrid ... 1 (Lebedev-50)
Angular grid pruning method      GridPruning ... 4 (adaptive)
Weight generation scheme         WeightScheme... Becke
Basis function cutoff            BFCut       ... 1.0000e-10
Integration weight cutoff        WCut        ... 1.0000e-14
Angular grids for H and He will be reduced by one unit
Partially contracted basis set               ... on
Rotationally invariant grid construction     ... off

Total number of grid points                  ...    17787
Total number of batches                      ...      300
Average number of points per batch           ...       59
Average number of grid points per atom       ...      445

Memory available               ... 807.1 MB
Memory needed per perturbation ...  48.1 MB
Perturbations treated per batch... 3
Number of batches              ... 1
     CP-SCF ITERATION   0:   1.3252e+01 (   6.7 sec   0/  3 done)
     CP-SCF ITERATION   1:   1.8781e+00 (   6.3 sec   0/  3 done)
     CP-SCF ITERATION   2:   3.4120e-01 (   6.3 sec   0/  3 done)
     CP-SCF ITERATION   3:   3.9188e-02 (   6.4 sec   0/  3 done)
     CP-SCF ITERATION   4:   5.8482e-03 (   6.4 sec   0/  3 done)
     CP-SCF ITERATION   5:   1.6549e-03 (   6.4 sec   2/  3 done)
     CP-SCF ITERATION   6:   3.4646e-04 (   3.9 sec   3/  3 done)
                    *** THE CP-SCF HAS CONVERGED ***

Forming final perturbed densities           ... done
Transforming perturbed density to AO basis  ... done

 Raw HFC matrix (all values in MHz): 
 -----------------------------------
               -89.9143              22.5230              -4.4249
                21.4652            -369.6013              68.8660
                -4.1250              68.6584            -100.5806

 A(FC)        -174.7768            -174.7768            -174.7768
 A(SD)          97.9459              93.8690            -191.8149
 A(ORB+DIA)     -6.9720              -7.5468             -21.2471    A(PC) = -11.9220
 A(ORB)         -6.9715              -7.5473             -21.2470    A(PC) = -11.9219
 A(DIA)         -0.0004               0.0005              -0.0002    A(PC) =  -0.0000
             ----------           ----------           ----------
 A(Tot)        -83.8028             -88.4546            -387.8388    A(iso)= -186.6987
 Orientation: 
  X           0.2186891            0.9727742           -0.0767164
  Y           0.2448131            0.0214087            0.9693339
  Z           0.9445854           -0.2307640           -0.2334660

Notes:  (1) The A matrix conforms to the "SAI" spin Hamiltonian convention.
        (2) Tensor is right-handed.

 Raw EFG matrix (all values in a.u.**-3):
 -----------------------------------
            -0.1669      -0.0540       0.0517
            -0.0540       0.2022      -0.0682
             0.0517      -0.0682      -0.0354

 V(El)       0.1835      -0.4784       0.2950
 V(Nuc)     -0.2277       0.2913      -0.0636
         ----------   ----------   ----------
 V(Tot)     -0.0442      -0.1871       0.2313 
 Orientation: 
  X       0.2509860    0.9539716   -0.1641469
  Y       0.3088157    0.0818020    0.9475976
  Z       0.9174088   -0.2885249   -0.2740703

Note: Tensor is right-handed


 Quadrupole tensor eigenvalues (in MHz;Q=-0.0430 I=  3.5)
  e**2qQ            =    -2.337044 MHz 
  e**2qQ/(4I*(2I-1))=    -0.027822 MHz 
  eta               =     0.617996
  NOTE: the diagonal representation of the SH term I*Q*I = e**2qQ/(4I(2I-1))*[-(1-eta),-(1+eta),2]

 RHO(0)=   8115.199317532 a.u.**-3


--------------------------------------------------------------------------------
----------------------------------------------------------------------------
                           ORCA EULER ANGLE PROGRAM
----------------------------------------------------------------------------

Only g-tensor available        -->  using g-tensor as reference tensor

Reference tensor               ...  g

g-tensor ordering              ...  |g_min> --> |gx>
                                    |g_mid> --> |gy>
                                    |g_max> --> |gz>

A- and EFG-tensor ordering     ...  the axes |Ax>, |Qx>, |Ay>, etc. are assigned
                                    such that the Euler rotation is minimal. You
                                    can find the respective eigenvalues as Ax,
                                    EFGx, Ay, etc. in the tables below.
                                    The relation of |Ax>, |Ay>,  etc. to Amin, Amid, etc.
                                    (as printed in the ORCA EPR/NMR CALCULATION Output)
                                    is obtained in the detailed printout.

Euler rotation around          ...  z - y - z
   First rotation              -->  by alpha around z
   Second rotation             -->  by beta around y'
   Third rotation              -->  by gamma around z''
   Positive / Negative angle   -->  clockwise / counterclockwise rotation

Plot EFG-tensors                    (-)
Plot HFC-tensors                    (-)
Detailed Printout                   (-)

-------------------------------------------------------------------------
          Euler rotation of hyperfine tensor to g-tensor
-------------------------------------------------------------------------

-------------------------------------------------------------------
 Atom  |   Alpha    Beta    Gamma   |   Ax       Ay       Az 
       |          [degrees]         |           [MHz]         
-------------------------------------------------------------------
 25H       30.9      9.3    -56.1      -0.13     0.26    -0.13
 26H      156.3     20.9   -177.9      -0.08     0.16    -0.08
 27H      -52.2      5.3     28.0      -0.07     0.13    -0.07
 28H      -62.4      4.7     47.8      -0.07     0.14    -0.07
 29H      -41.1     25.8     18.0      -0.08     0.16    -0.08
 30H     -121.7     15.5     96.9      -0.13     0.26    -0.13
 34H      151.2      5.6   -157.2      -0.12     0.24    -0.13
 35H       51.4      9.5    -48.3      -0.08     0.18    -0.08
 36H      -73.7      5.8     81.0      -0.07     0.13    -0.07
 37H      -40.9      9.6     37.5      -0.07     0.14    -0.07
 38H      -71.9     20.3     75.4      -0.08     0.18    -0.08
 39H      -53.9     19.4     47.5      -0.12     0.24    -0.13
  0V      -75.9      4.4     82.8    -387.84   -88.45   -83.80
-------------------------------------------------------------------


-------------------------------------------------------------------------------
    Euler rotation of Electric Field Gradient (EFG) tensor to g-tensor
-------------------------------------------------------------------------------

-------------------------------------------------------------------
 Atom  |   Alpha    Beta    Gamma  |   EFGx     EFGy     EFGz
       |          [degrees]        |         [a.u.**-3]       
-------------------------------------------------------------------
 25H       -5.3     45.7     34.2     -0.14     0.28    -0.14
 26H      -27.2     41.7     63.5     -0.14    -0.15     0.29
 27H      -48.5      4.2     71.1      0.28    -0.15    -0.13
 28H      -32.9      4.1     71.2     -0.14     0.28    -0.13
 29H      154.5     33.5   -117.7     -0.14    -0.15     0.29
 30H     -177.7     39.8   -151.2     -0.14     0.28    -0.14
 34H       92.8     32.9   -111.2      0.22    -0.12    -0.11
 35H      -62.7     42.4    102.3     -0.12    -0.13     0.25
 36H     -102.5      7.3     59.2      0.27    -0.14    -0.13
 37H      -36.2      7.5     64.0      0.24    -0.12    -0.12
 38H       99.0     33.2    -62.8     -0.12    -0.13     0.25
 39H       83.3     43.3   -104.5      0.22    -0.11    -0.12
  0V      -57.6      8.1     60.0      0.23    -0.19    -0.04
-------------------------------------------------------------------


Maximum memory used throughout the entire EPRNMR-calculation: 316.0 MB

Timings for individual modules:

Sum of individual times         ...     3973.783 sec (=  66.230 min)
GTO integral calculation        ...        1.435 sec (=   0.024 min)   0.0 %
Spin-Orbit-Coupling Matrices    ...       13.249 sec (=   0.221 min)   0.3 %
SCF iterations                  ...      241.515 sec (=   4.025 min)   6.1 %
EPR/NMR calculation             ...     3717.584 sec (=  61.960 min)  93.6 %
                             ****ORCA TERMINATED NORMALLY****
TOTAL RUN TIME: 0 days 1 hours 6 minutes 14 seconds 799 msec
