
                                 *****************
                                 * O   R   C   A *
                                 *****************

                                            #,                                       
                                            ###                                      
                                            ####                                     
                                            #####                                    
                                            ######                                   
                                           ########,                                 
                                     ,,################,,,,,                         
                               ,,#################################,,                 
                          ,,##########################################,,             
                       ,#########################################, ''#####,          
                    ,#############################################,,   '####,        
                  ,##################################################,,,,####,       
                ,###########''''           ''''###############################       
              ,#####''   ,,,,##########,,,,          '''####'''          '####       
            ,##' ,,,,###########################,,,                        '##       
           ' ,,###''''                  '''############,,,                           
         ,,##''                                '''############,,,,        ,,,,,,###''
      ,#''                                            '''#######################'''  
     '                                                          ''''####''''         
             ,#######,   #######,   ,#######,      ##                                
            ,#'     '#,  ##    ##  ,#'     '#,    #''#        ######   ,####,        
            ##       ##  ##   ,#'  ##            #'  '#       #        #'  '#        
            ##       ##  #######   ##           ,######,      #####,   #    #        
            '#,     ,#'  ##    ##  '#,     ,#' ,#      #,         ##   #,  ,#        
             '#######'   ##     ##  '#######'  #'      '#     #####' # '####'        



                  #######################################################
                  #                        -***-                        #
                  #          Department of theory and spectroscopy      #
                  #    Directorship and core code : Frank Neese         #
                  #        Max Planck Institute fuer Kohlenforschung    #
                  #                Kaiser Wilhelm Platz 1               #
                  #                 D-45470 Muelheim/Ruhr               #
                  #                      Germany                        #
                  #                                                     #
                  #                  All rights reserved                #
                  #                        -***-                        #
                  #######################################################


                         Program Version 5.0.4 -  RELEASE  -


 With contributions from (in alphabetic order):
   Daniel Aravena         : Magnetic Suceptibility
   Michael Atanasov       : Ab Initio Ligand Field Theory (pilot matlab implementation)
   Alexander A. Auer      : GIAO ZORA, VPT2 properties, NMR spectrum
   Ute Becker             : Parallelization
   Giovanni Bistoni       : ED, misc. LED, open-shell LED, HFLD
   Martin Brehm           : Molecular dynamics
   Dmytro Bykov           : SCF Hessian
   Vijay G. Chilkuri      : MRCI spin determinant printing, contributions to CSF-ICE
   Dipayan Datta          : RHF DLPNO-CCSD density
   Achintya Kumar Dutta   : EOM-CC, STEOM-CC
   Dmitry Ganyushin       : Spin-Orbit,Spin-Spin,Magnetic field MRCI
   Miquel Garcia          : C-PCM and meta-GGA Hessian, CC/C-PCM, Gaussian charge scheme
   Yang Guo               : DLPNO-NEVPT2, F12-NEVPT2, CIM, IAO-localization
   Andreas Hansen         : Spin unrestricted coupled pair/coupled cluster methods
   Benjamin Helmich-Paris : MC-RPA, TRAH-SCF, COSX integrals
   Lee Huntington         : MR-EOM, pCC
   Robert Izsak           : Overlap fitted RIJCOSX, COSX-SCS-MP3, EOM
   Marcus Kettner         : VPT2
   Christian Kollmar      : KDIIS, OOCD, Brueckner-CCSD(T), CCSD density, CASPT2, CASPT2-K
   Simone Kossmann        : Meta GGA functionals, TD-DFT gradient, OOMP2, MP2 Hessian
   Martin Krupicka        : Initial AUTO-CI
   Lucas Lang             : DCDCAS
   Marvin Lechner         : AUTO-CI (C++ implementation), FIC-MRCC
   Dagmar Lenk            : GEPOL surface, SMD
   Dimitrios Liakos       : Extrapolation schemes; Compound Job, initial MDCI parallelization
   Dimitrios Manganas     : Further ROCIS development; embedding schemes
   Dimitrios Pantazis     : SARC Basis sets
   Anastasios Papadopoulos: AUTO-CI, single reference methods and gradients
   Taras Petrenko         : DFT Hessian,TD-DFT gradient, ASA, ECA, R-Raman, ABS, FL, XAS/XES, NRVS
   Peter Pinski           : DLPNO-MP2, DLPNO-MP2 Gradient
   Christoph Reimann      : Effective Core Potentials
   Marius Retegan         : Local ZFS, SOC
   Christoph Riplinger    : Optimizer, TS searches, QM/MM, DLPNO-CCSD(T), (RO)-DLPNO pert. Triples
   Tobias Risthaus        : Range-separated hybrids, TD-DFT gradient, RPA, STAB
   Michael Roemelt        : Original ROCIS implementation
   Masaaki Saitow         : Open-shell DLPNO-CCSD energy and density
   Barbara Sandhoefer     : DKH picture change effects
   Avijit Sen             : IP-ROCIS
   Kantharuban Sivalingam : CASSCF convergence, NEVPT2, FIC-MRCI
   Bernardo de Souza      : ESD, SOC TD-DFT
   Georgi Stoychev        : AutoAux, RI-MP2 NMR, DLPNO-MP2 response
   Willem Van den Heuvel  : Paramagnetic NMR
   Boris Wezisla          : Elementary symmetry handling
   Frank Wennmohs         : Technical directorship


 We gratefully acknowledge several colleagues who have allowed us to
 interface, adapt or use parts of their codes:
   Stefan Grimme, W. Hujo, H. Kruse, P. Pracht,  : VdW corrections, initial TS optimization,
                  C. Bannwarth, S. Ehlert          DFT functionals, gCP, sTDA/sTD-DF
   Ed Valeev, F. Pavosevic, A. Kumar             : LibInt (2-el integral package), F12 methods
   Garnet Chan, S. Sharma, J. Yang, R. Olivares  : DMRG
   Ulf Ekstrom                                   : XCFun DFT Library
   Mihaly Kallay                                 : mrcc  (arbitrary order and MRCC methods)
   Jiri Pittner, Ondrej Demel                    : Mk-CCSD
   Frank Weinhold                                : gennbo (NPA and NBO analysis)
   Christopher J. Cramer and Donald G. Truhlar   : smd solvation model
   Lars Goerigk                                  : TD-DFT with DH, B97 family of functionals
   V. Asgeirsson, H. Jonsson                     : NEB implementation
   FAccTs GmbH                                   : IRC, NEB, NEB-TS, DLPNO-Multilevel, CI-OPT
                                                   MM, QMMM, 2- and 3-layer-ONIOM, Crystal-QMMM,
                                                   LR-CPCM, SF, NACMEs, symmetry and pop. for TD-DFT,
                                                   nearIR, NL-DFT gradient (VV10), updates on ESD,
                                                   ML-optimized integration grids
   S Lehtola, MJT Oliveira, MAL Marques          : LibXC Library
   Liviu Ungur et al                             : ANISO software


 Your calculation uses the libint2 library for the computation of 2-el integrals
 For citations please refer to: http://libint.valeyev.net

 Your ORCA version has been built with support for libXC version: 5.1.0
 For citations please refer to: https://tddft.org/programs/libxc/

 This ORCA versions uses:
   CBLAS   interface :  Fast vector & matrix operations
   LAPACKE interface :  Fast linear algebra routines
   SCALAPACK package :  Parallel linear algebra routines
   Shared memory     :  Shared parallel matrices
   BLAS/LAPACK       :  OpenBLAS 0.3.15  USE64BITINT DYNAMIC_ARCH NO_AFFINITY Prescott SINGLE_THREADED
        Core in use  :  Prescott
   Copyright (c) 2011-2014, The OpenBLAS Project


XCFun DFT library Copyright 2009-2010 Ulf Ekstrom and contributors.
See http://admol.org/xcfun for more information.
This is free software; see the source code for copying conditions.
There is ABSOLUTELY NO WARRANTY; not even for MERCHANTABILITY or FITNESS FOR A PARTICULAR PURPOSE.
For details see the documentation.
Scientific users of this library should cite U. Ekstrom, L. Visscher, R. Bast, A. J. Thorvaldsen and K. Ruud;
J.Chem.Theor.Comp. 2010, DOI: 10.1021/ct100117s
XCFun Version 0.99 

================================================================================

----- Orbital basis set information -----
Your calculation utilizes the basis: ANO-RCC-DZP
   H, He:       P.-O. Widmark, P.-A. Malmqvist, and B. O. Roos, Theor. Chim. Acta 77, 291 (1990).
   s block:     B. O. Roos, V. Veryazov and P.-O. Widmark, Theor. Chem. Acc. 111, 345 (2004).
   p block:     B. O. Roos, R. Lindh, P.-A. Malmqvist, V. Veryazov, and P.-O. Widmark, J. Phys. Chem. A 108, 2851 (2004).
   d block:     B. O. Roos, R. Lindh, P.-A. Malmqvist, V. Veryazov, and P.-O. Widmark, J. Phys. Chem. A 109, 6575 (2005).
   actinides:   B. O. Roos, R. Lindh, P.-A. Malmqvist, V. Veryazov, and P.-O. Widmark, Chem. Phys. Letters 409, 295 (2005).
   lanthanides: B. O. Roos, R. Lindh, P.-A. Malmqvist, V. Veryazov, P.-O. Widmark and A. C. Borin, J. Phys. Chem. A 112, 11431 (2008).

The basis set includes element-specific modifications.

Your calculation utilizes the basis: ANO-RCC-TZP
   H, He:       P.-O. Widmark, P.-A. Malmqvist, and B. O. Roos, Theor. Chim. Acta 77, 291 (1990).
   s block:     B. O. Roos, V. Veryazov and P.-O. Widmark, Theor. Chem. Acc. 111, 345 (2004).
   p block:     B. O. Roos, R. Lindh, P.-A. Malmqvist, V. Veryazov, and P.-O. Widmark, J. Phys. Chem. A 108, 2851 (2004).
   d block:     B. O. Roos, R. Lindh, P.-A. Malmqvist, V. Veryazov, and P.-O. Widmark, J. Phys. Chem. A 109, 6575 (2005).
   actinides:   B. O. Roos, R. Lindh, P.-A. Malmqvist, V. Veryazov, and P.-O. Widmark, Chem. Phys. Letters 409, 295 (2005).
   lanthanides: B. O. Roos, R. Lindh, P.-A. Malmqvist, V. Veryazov, P.-O. Widmark and A. C. Borin, J. Phys. Chem. A 112, 11431 (2008).

----- AuxJ basis set information -----
Your calculation utilizes the AutoAux generation procedure.
  G. L. Stoychev, A. A. Auer, F. Neese, J. Chem. Theory Comput. 13, 554 (2017)

----- AuxC basis set information -----
Your calculation utilizes the AutoAux generation procedure.
  G. L. Stoychev, A. A. Auer, F. Neese, J. Chem. Theory Comput. 13, 554 (2017)

----- AuxJK basis set information -----
Your calculation utilizes the AutoAux generation procedure.
  G. L. Stoychev, A. A. Auer, F. Neese, J. Chem. Theory Comput. 13, 554 (2017)

================================================================================
                                        WARNINGS
                       Please study these warnings very carefully!
================================================================================


Removing linear dependencies from the Orbital basis set:
  S-ok PCD(Thresh=Auto)-ok done ( 0.887 sec)
  Dim=475 Nullspace=0 Removed 0 shells / 0 basis functions

Removing linear dependencies from the AuxJ basis set:
  V-ok PCD(Thresh=Auto)-ok done (30.037 sec)
  Dim=3632 Nullspace=0 Removed 0 shells / 0 basis functions

Removing linear dependencies from the AuxC basis set:
  V-ok PCD(Thresh=Auto)-ok done (30.016 sec)
  Dim=3632 Nullspace=0 Removed 0 shells / 0 basis functions

Removing linear dependencies from the AuxJK basis set:
  V-ok PCD(Thresh=Auto)-ok done (29.976 sec)
  Dim=3632 Nullspace=0 Removed 0 shells / 0 basis functions


WARNING: Found flag for RIJCOSX approximation but no HF exchange needed!
  ===> : RIJCOSX  will be disabled and Split-RI-J is turned on

WARNING: your system is open-shell and RHF/RKS was chosen
  ===> : WILL SWITCH to UHF/UKS


WARNING: Minnesota functionals are quite sensitive to the integration grid.
         see SE Wheeler, KN Houk, JCTC 2010, 6, 395,
             N Mardirossian, M Head-Gordon, JCTC 2016, 12, 4303.
         DEFGRID3 seems to be a minimum grid for reliable results with these functionals!
  ===> : Please increase the integration grid!


INFO   : the flag for use of the SHARK integral package has been found!

================================================================================
                                       INPUT FILE
================================================================================
NAME = input_118.inp
|  1> ! RIJCOSX nofrozencore ReducedPop printbasis
|  2> ! M06L ano-rcc-dzp autoaux
|  3> 
|  4> %maxcore 5000
|  5> %basis
|  6> PCDTrimBas overlap
|  7> PCDTrimAuxJ Coulomb
|  8> PCDTrimAuxJK Coulomb
|  9> PCDTrimAuxC Coulomb
| 10> PCDThresh -1
| 11> end
| 12> 
| 13> %basis
| 14> newgto Cu "ano-rcc-tzp" end
| 15> newgto S "ano-rcc-tzp" end
| 16> end
| 17> 
| 18> %pal
| 19> nprocs 12
| 20> end
| 21> 
| 22> % sym SymThresh 1e-2 end
| 23> * xyz -2 2 
| 24> Cu -0.0002864904470939796 0.0005842374837880867 0.0001229055989809123
| 25> S 0.5438882709682714 -0.9764108367943692 -2.0311830357519884
| 26> C 0.02777844011408472 0.18738193292923028 -3.3172083343199192
| 27> S 0.8349725241825044 -1.815866534082113 1.1738808624476809
| 28> C 0.5888108736035074 -1.432497210659561 2.886226382385978
| 29> S -0.8353173636523881 1.8164308686776207 -1.1718516679758955
| 30> C -0.5614984322709983 1.3669022640797865 -2.7638937287702947
| 31> S -0.5445229502745387 0.9778669778111101 2.0292631905713656
| 32> C -0.03048316024262764 -0.17225834049240366 3.1882338189076447
| 33> C -0.19024279241237854 0.04945089374804949 4.666590378034873
| 34> C 0.9683441393819413 -2.2842581172810554 3.7769308969175297
| 35> C 0.7830568888562536 -2.0104601665839175 5.265826264514823
| 36> H 1.4492034699943384 -3.2713816827513913 3.658833207100461
| 37> C 0.17088137312209795 -0.7622194715953647 5.530666989959601
| 38> H -0.6675676615700236 1.0302154476278298 4.771675319532849
| 39> H 1.139593962742013 -2.7983505339671564 5.936482085953573
| 40> H 0.08078799970781766 -0.655908519330391 6.617881543469784
| 41> C 0.23527289154294845 -0.16151965750963104 -4.4117757069085
| 42> C -0.9779551067040384 2.3248154780663017 -4.056672658273015
| 43> C -0.23559777253640357 0.9080935820723086 -5.69115319743055
| 44> H 0.6676964057773449 -1.0062926601443467 -5.099311127119488
| 45> C -0.800786358204075 2.032123216159482 -5.061925148272829
| 46> H -1.3978771258001517 3.142143869573666 -3.3480827742983497
| 47> H 0.06078551633602291 0.36525300428373947 -6.652261127207084
| 48> H -1.0162734442645667 2.550420021762454 -6.037551028489684
| 49> * 
| 50> 
| 51> % eprnmr
| 52> gtensor true
| 53> Nuclei = all H {aiso,adip,aorb,fgrad,rho}
| 54> Nuclei = all Cu {aiso,adip,aorb,fgrad,rho}
| 55> end
| 56> 
| 57>                          ****END OF INPUT****
================================================================================

------------------------------------------------------------------------------
                            SYMMETRY HANDLING SETUP
------------------------------------------------------------------------------

------------------
SYMMETRY DETECTION
------------------
The point group will now be determined using a tolerance of 1.0000e-02.
Splitting atom subsets according to nuclear charge, mass and basis set.
Splitting atom subsets according to distance from the molecule's center.
Identifying relative distance patterns of the atoms.
Splitting atom subsets according to atoms' relative distance patterns.
Bring atoms of each subset into input order.
The molecule is planar.
There is at least one atom subset not centered around the molecule's center.
The molecule does not have a center of inversion.
Analyzing the first atom subset for its symmetry.
Testing point group C2v.
Test failed.
Testing point group Cs.
Success!
This point group has been found:    Cs
Largest non-degenerate subgroup:    Cs


Mass-centered symmetry-perfected Cartesians (point group Cs):

Atom          Symmetry-perfected Cartesians (x, y, z; au)
  0       0.001227743804    0.000241644461    0.000000000000
  1      -2.078686662424   -3.856574908675    0.000000000000
  2       0.344620348535   -6.269363623816    0.000000000000
  3      -3.793284345807    2.190138282055    0.000000000000
  4      -2.963727170253    5.434192625322    0.000000000000
  5       3.794498205809   -2.186292667894    0.000000000000
  6       2.827872186158   -5.203944262060    0.000000000000
  7       2.081714077408    3.852967899278    0.000000000000
  8      -0.314773690809    6.025734933902    0.000000000000
  9       0.172122900355    8.824718768234    0.000000000000
 10      -4.738045897850    7.104553344922    0.000000000000
 11      -4.141690134076    9.924311411750    0.000000000000
 12      -6.811190753925    6.865200004240    0.000000000000
 13      -1.518458445971   10.445381272101    0.000000000000
 14       2.231733178432    9.039363327530    0.000000000000
 15      -5.785203803431   11.179626919704    0.000000000000
 16      -1.279446909573   12.502890637698    0.000000000000
 17      -0.403559669820   -8.344719593838    0.000000000000
 18       4.819055326577   -7.632849845654    0.000000000000
 19       1.822215054502  -10.746469084225    0.000000000000
 20      -2.186331850597   -9.658491637389    0.000000000000
 21       4.190135184070   -9.538409295758    0.000000000000
 22       6.544545157135   -6.279712670781    0.000000000000
 23       0.669021434544  -12.572623147631    0.000000000000
 24       5.263457160729  -11.374765822243    0.000000000000


-----------------------------------------------
SYMMETRY-PERFECTED CARTESIAN COORDINATES (A.U.)
-----------------------------------------------
Warning (ORCA_SYM): Coordinates were not cleaned so far!

------------------
SYMMETRY REDUCTION
------------------
ORCA supports only abelian point groups.
It is now checked, if the determined point group is supported:
Point Group ( Cs    ) is          ... supported

(Re)building abelian point group:
Creating Character Table          ... done
Making direct product table       ... done
Constructing symmetry operations  ... done
Creating atom transfer table      ... done
Creating asymmetric unit          ... done

---------------------
ASYMMETRIC UNIT IN Cs
---------------------
  #  AT     MASS              COORDS (A.U.)             BAS
   0 Cu  63.5500   0.00122774   0.00024164   0.00000000   0
   1 S   32.0600  -2.07868666  -3.85657491   0.00000000   0
   2 C   12.0110   0.34462035  -6.26936362   0.00000000   0
   3 S   32.0600  -3.79328435   2.19013828   0.00000000   0
   4 C   12.0110  -2.96372717   5.43419263   0.00000000   0
   5 S   32.0600   3.79449821  -2.18629267   0.00000000   0
   6 C   12.0110   2.82787219  -5.20394426   0.00000000   0
   7 S   32.0600   2.08171408   3.85296790   0.00000000   0
   8 C   12.0110  -0.31477369   6.02573493   0.00000000   0
   9 C   12.0110   0.17212290   8.82471877   0.00000000   0
  10 C   12.0110  -4.73804590   7.10455334   0.00000000   0
  11 C   12.0110  -4.14169013   9.92431141   0.00000000   0
  12 H    1.0080  -6.81119075   6.86520000   0.00000000   0
  13 C   12.0110  -1.51845845  10.44538127   0.00000000   0
  14 H    1.0080   2.23173318   9.03936333   0.00000000   0
  15 H    1.0080  -5.78520380  11.17962692   0.00000000   0
  16 H    1.0080  -1.27944691  12.50289064   0.00000000   0
  17 C   12.0110  -0.40355967  -8.34471959   0.00000000   0
  18 C   12.0110   4.81905533  -7.63284985   0.00000000   0
  19 C   12.0110   1.82221505 -10.74646908   0.00000000   0
  20 H    1.0080  -2.18633185  -9.65849164   0.00000000   0
  21 C   12.0110   4.19013518  -9.53840930   0.00000000   0
  22 H    1.0080   6.54454516  -6.27971267   0.00000000   0
  23 H    1.0080   0.66902143 -12.57262315   0.00000000   0
  24 H    1.0080   5.26345716 -11.37476582   0.00000000   0

----------------------
SYMMETRY ADAPTED BASIS
----------------------
The coefficients for the symmetry adapted linear combinations (SALCS)
of basis functions will now be computed:
Number of basis functions         ...   475
Preparing memory                  ... done
Constructing Gamma(red)           ... done
Reducing Gamma(red)               ... done
Constructing SALCs                ... done
Checking SALC integrity           ... nothing suspicious
Normalizing SALCs                 ... done

Storing the symmetry object:
Symmetry file                     ... input_118.sym.tmp
Writing symmetry information      ... done

                       ****************************
                       * Single Point Calculation *
                       ****************************

---------------------------------
CARTESIAN COORDINATES (ANGSTROEM)
---------------------------------
  Cu     0.000650    0.000128    0.000000
  S     -1.099994   -2.040812    0.000000
  C      0.182365   -3.317604    0.000000
  S     -2.007320    1.158971    0.000000
  C     -1.568337    2.875651    0.000000
  S      2.007962   -1.156936    0.000000
  C      1.496446   -2.753809    0.000000
  S      1.101596    2.038903    0.000000
  C     -0.166571    3.188682    0.000000
  C      0.091084    4.669840    0.000000
  C     -2.507266    3.759568    0.000000
  C     -2.191688    5.251719    0.000000
  H     -3.604327    3.632907    0.000000
  C     -0.803534    5.527458    0.000000
  H      1.180982    4.783425    0.000000
  H     -3.061398    5.916004    0.000000
  H     -0.677054    6.616245    0.000000
  C     -0.213555   -4.415835    0.000000
  C      2.550134   -4.039130    0.000000
  C      0.964275   -5.686787    0.000000
  H     -1.156957   -5.111054    0.000000
  C      2.217324   -5.047509    0.000000
  H      3.463224   -3.323081    0.000000
  H      0.354031   -6.653146    0.000000
  H      2.785302   -6.019267    0.000000

----------------------------
CARTESIAN COORDINATES (A.U.)
----------------------------
  NO LB      ZA    FRAG     MASS         X           Y           Z
   0 Cu   29.0000    0    63.550    0.001228    0.000242    0.000000
   1 S    16.0000    0    32.060   -2.078687   -3.856575    0.000000
   2 C     6.0000    0    12.011    0.344620   -6.269364    0.000000
   3 S    16.0000    0    32.060   -3.793284    2.190138    0.000000
   4 C     6.0000    0    12.011   -2.963727    5.434193    0.000000
   5 S    16.0000    0    32.060    3.794498   -2.186293    0.000000
   6 C     6.0000    0    12.011    2.827872   -5.203944    0.000000
   7 S    16.0000    0    32.060    2.081714    3.852968    0.000000
   8 C     6.0000    0    12.011   -0.314774    6.025735    0.000000
   9 C     6.0000    0    12.011    0.172123    8.824719    0.000000
  10 C     6.0000    0    12.011   -4.738046    7.104553    0.000000
  11 C     6.0000    0    12.011   -4.141690    9.924311    0.000000
  12 H     1.0000    0     1.008   -6.811191    6.865200    0.000000
  13 C     6.0000    0    12.011   -1.518458   10.445381    0.000000
  14 H     1.0000    0     1.008    2.231733    9.039363    0.000000
  15 H     1.0000    0     1.008   -5.785204   11.179627    0.000000
  16 H     1.0000    0     1.008   -1.279447   12.502891    0.000000
  17 C     6.0000    0    12.011   -0.403560   -8.344720    0.000000
  18 C     6.0000    0    12.011    4.819055   -7.632850    0.000000
  19 C     6.0000    0    12.011    1.822215  -10.746469    0.000000
  20 H     1.0000    0     1.008   -2.186332   -9.658492    0.000000
  21 C     6.0000    0    12.011    4.190135   -9.538409    0.000000
  22 H     1.0000    0     1.008    6.544545   -6.279713    0.000000
  23 H     1.0000    0     1.008    0.669021  -12.572623    0.000000
  24 H     1.0000    0     1.008    5.263457  -11.374766    0.000000

--------------------------------
INTERNAL COORDINATES (ANGSTROEM)
--------------------------------
 Cu     0   0   0     0.000000000000     0.00000000     0.00000000
 S      1   0   0     2.318803435717     0.00000000     0.00000000
 C      2   1   0     1.809597755558   106.53816773     0.00000000
 S      1   2   3     2.318374164864    91.65297584   180.00000000
 C      4   1   2     1.771918388643   105.64611866   180.00000000
 S      1   2   3     2.316916042573    88.37701140     0.00000000
 C      3   2   1     1.429920451158   111.90325042     0.00000000
 S      1   2   3     2.317042333417   179.96800738     0.00000000
 C      5   4   1     1.436292310761   116.93235284     0.00000000
 C      9   5   4     1.503401556648   112.45640653   180.00000085
 C      5   4   1     1.289533510262   118.92730442   179.99999879
 C     11   5   4     1.525157729111   121.32975904   179.99999915
 H     11   5   4     1.104348538136   130.14274096     0.00000000
 C     10   9   5     1.239293280941   123.92221847     0.00000000
 H     10   9   5     1.095801526643   105.81779273   179.99999915
 H     12  11   5     1.094380713874   115.43096679   180.00000000
 H     14  10   9     1.096108717176   127.16425360   179.99999915
 C      3   2   1     1.167417663187   115.05080426   179.99999915
 C      7   3   2     1.662020230856   106.12306001   180.00000000
 C     18   3   2     1.732800746720   117.35320543   180.00000000
 H     18   3   2     1.171894396133   146.21206534     0.00000000
 C     19   7   3     1.061880451970   122.39036591     0.00000000
 H     19   7   3     1.160370555192    91.24071734   179.99999915
 H     20  18   3     1.142911807401   104.90588340   180.00000000
 H     22  19   7     1.125571908456   131.42916600   180.00000000

---------------------------
INTERNAL COORDINATES (A.U.)
---------------------------
 Cu     0   0   0     0.000000000000     0.00000000     0.00000000
 S      1   0   0     4.381903451901     0.00000000     0.00000000
 C      2   1   0     3.419644170564   106.53816773     0.00000000
 S      1   2   3     4.381092247551    91.65297584   180.00000000
 C      4   1   2     3.348440486194   105.64611866   180.00000000
 S      1   2   3     4.378336795751    88.37701140     0.00000000
 C      3   2   1     2.702158045982   111.90325042     0.00000000
 S      1   2   3     4.378575450859   179.96800738     0.00000000
 C      5   4   1     2.714199115596   116.93235284     0.00000000
 C      9   5   4     2.841017211376   112.45640653   180.00000085
 C      5   4   1     2.436865174909   118.92730442   179.99999879
 C     11   5   4     2.882130419052   121.32975904   179.99999915
 H     11   5   4     2.086916293474   130.14274096     0.00000000
 C     10   9   5     2.341924900587   123.92221847     0.00000000
 H     10   9   5     2.070764782488   105.81779273   179.99999915
 H     12  11   5     2.068079835468   115.43096679   180.00000000
 H     14  10   9     2.071345288466   127.16425360   179.99999915
 C      3   2   1     2.206099667325   115.05080426   179.99999915
 C      7   3   2     3.140763065355   106.12306001   180.00000000
 C     18   3   2     3.274518855955   117.35320543   180.00000000
 H     18   3   2     2.214559466568   146.21206534     0.00000000
 C     19   7   3     2.006663241188   122.39036591     0.00000000
 H     19   7   3     2.192782563179    91.24071734   179.99999915
 H     20  18   3     2.159790311212   104.90588340   180.00000000
 H     22  19   7     2.127022651018   131.42916600   180.00000000

---------------------
BASIS SET INFORMATION
---------------------
There are 4 groups of distinct atoms

 Group   1 Type Cu  : 126s75p30d12f4g contracted to 6s5p3d2f1g pattern {212121212121/1515151515/101010/66/4}
 Group   2 Type S   : 85s48p10d4f contracted to 5s4p2d1f pattern {1717171717/12121212/55/4}
 Group   3 Type C   : 42s18p4d contracted to 3s2p1d pattern {141414/99/4}
 Group   4 Type H   : 24s8p3d contracted to 3s2p1d pattern {888/44/3}

Atom   0Cu   basis set group =>   1
Atom   1S    basis set group =>   2
Atom   2C    basis set group =>   3
Atom   3S    basis set group =>   2
Atom   4C    basis set group =>   3
Atom   5S    basis set group =>   2
Atom   6C    basis set group =>   3
Atom   7S    basis set group =>   2
Atom   8C    basis set group =>   3
Atom   9C    basis set group =>   3
Atom  10C    basis set group =>   3
Atom  11C    basis set group =>   3
Atom  12H    basis set group =>   4
Atom  13C    basis set group =>   3
Atom  14H    basis set group =>   4
Atom  15H    basis set group =>   4
Atom  16H    basis set group =>   4
Atom  17C    basis set group =>   3
Atom  18C    basis set group =>   3
Atom  19C    basis set group =>   3
Atom  20H    basis set group =>   4
Atom  21C    basis set group =>   3
Atom  22H    basis set group =>   4
Atom  23H    basis set group =>   4
Atom  24H    basis set group =>   4

-------------------------
BASIS SET IN INPUT FORMAT
-------------------------

 # Basis set for element : H 
 NewGTO H 
 S 8 
   1     188.6144500000      0.0009638500
   2      28.2765960000      0.0074919600
   3       6.4248300000      0.0375954101
   4       1.8150410000      0.1433949804
   5       0.5910630000      0.3486363010
   6       0.2121490000      0.4382973612
   7       0.0798910000      0.1651066105
   8       0.0279620000      0.0210228701
 S 8 
   1     188.6144500000     -0.0013119000
   2      28.2765960000     -0.0103451000
   3       6.4248300000     -0.0504952998
   4       1.8150410000     -0.2073854991
   5       0.5910630000     -0.4350884981
   6       0.2121490000     -0.0247296999
   7       0.0798910000      0.3225259886
   8       0.0279620000      0.7072753770
 S 8 
   1     188.6144500000      0.0024224000
   2      28.2765960000      0.0203381700
   3       6.4248300000      0.0896393498
   4       1.8150410000      0.4422907090
   5       0.5910630000      0.5757143887
   6       0.2121490000     -0.9802889977
   7       0.0798910000     -0.6721537984
   8       0.0279620000      1.1417684974
 P 4 
   1       2.3050000000      0.1127901896
   2       0.8067500000      0.4185075284
   3       0.2823620000      0.4700077282
   4       0.0988270000      0.1826260293
 P 4 
   1       2.3050000000     -0.2108687968
   2       0.8067500000     -0.5943795909
   3       0.2823620000      0.0896888786
   4       0.0988270000      0.8611633869
 D 3 
   1       1.8190000000      0.2705134090
   2       0.7276000000      0.5510124980
   3       0.2910400000      0.3310866388
  end;

 # Basis set for element : C 
 NewGTO C 
 S 14 
   1   50557.5010000000      0.0001128874
   2    7524.7856000000      0.0005295373
   3    1694.3276000000      0.0024500383
   4     472.8227900000      0.0100539847
   5     151.7107500000      0.0354539806
   6      53.9187460000      0.1044071086
   7      20.6593110000      0.2412894918
   8       8.3839760000      0.3834225483
   9       3.5770150000      0.3078514393
  10       1.5471180000      0.0687244299
  11       0.6130130000      0.0002224445
  12       0.2460680000      0.0019767489
  13       0.0990870000      0.0020578594
  14       0.0346800000      0.0004182020
 S 14 
   1   50557.5010000000     -0.0000250742
   2    7524.7856000000     -0.0001175945
   3    1694.3276000000     -0.0005456275
   4     472.8227900000     -0.0022450771
   5     151.7107500000     -0.0080434718
   6      53.9187460000     -0.0244258871
   7      20.6593110000     -0.0613679118
   8       8.3839760000     -0.1177767835
   9       3.5770150000     -0.1550487783
  10       1.5471180000     -0.0193331686
  11       0.6130130000      0.3996930678
  12       0.2460680000      0.5589420949
  13       0.0990870000      0.1711195023
  14       0.0346800000      0.0074562446
 S 14 
   1   50557.5010000000      0.0000161788
   2    7524.7856000000      0.0000749712
   3    1694.3276000000      0.0003573467
   4     472.8227900000      0.0014349316
   5     151.7107500000      0.0055086779
   6      53.9187460000      0.0169149690
   7      20.6593110000      0.0514166524
   8       8.3839760000      0.1137343741
   9       3.5770150000      0.2337183944
  10       1.5471180000     -0.0718378257
  11       0.6130130000     -1.0490908711
  12       0.2460680000     -0.0666273399
  13       0.0990870000      1.0119993798
  14       0.0346800000      0.1656046386
 P 9 
   1      83.3331550000      0.0013446560
   2      19.5576110000      0.0102355550
   3       6.0803650000      0.0452006710
   4       2.1793170000      0.1410756198
   5       0.8651500000      0.3047388085
   6       0.3619440000      0.3995281011
   7       0.1547400000      0.2719163432
   8       0.0654290000      0.0585766933
   9       0.0229000000     -0.0001263813
 P 9 
   1      83.3331550000     -0.0017715885
   2      19.5576110000     -0.0145621810
   3       6.0803650000     -0.0574573357
   4       2.1793170000     -0.2126582848
   5       0.8651500000     -0.5271712924
   6       0.3619440000     -0.0929697730
   7       0.1547400000      0.6630031669
   8       0.0654290000      0.3360877793
   9       0.0229000000      0.0054695244
 D 4 
   1       1.9000000000      0.1424518048
   2       0.6650000000      0.5591973019
   3       0.2327500000      0.4430004380
   4       0.0814630000      0.0410665370
  end;

 # Basis set for element : S 
 NewGTO S 
 S 17 
   1  346348.2300000000      0.0002909200
   2   49391.1460000000      0.0009466500
   3   14610.9900000000      0.0021192300
   4    5187.2095000000      0.0060216101
   5    1980.9676000000      0.0165972602
   6     784.6313900000      0.0468398906
   7     317.3277900000      0.1224258115
   8     130.0197600000      0.2702243534
   9      53.7382080000      0.4054165750
  10      22.3458960000      0.2557152732
  11       9.3332512000      0.0267169303
  12       3.9111868000      0.0039033200
  13       1.6432066000     -0.0020418900
  14       0.6917456000      0.0014903400
  15       0.2916736000     -0.0006210700
  16       0.1231441000      0.0004416700
  17       0.0492576000     -0.0000032400
 S 17 
   1  346348.2300000000     -0.0000810100
   2   49391.1460000000     -0.0002638800
   3   14610.9900000000     -0.0005926300
   4    5187.2095000000     -0.0016876200
   5    1980.9676000000     -0.0047035700
   6     784.6313900000     -0.0135060701
   7     317.3277900000     -0.0371195902
   8     130.0197600000     -0.0911472306
   9      53.7382080000     -0.1778041811
  10      22.3458960000     -0.1706959211
  11       9.3332512000      0.1742316311
  12       3.9111868000      0.6328368240
  13       1.6432066000      0.3588663523
  14       0.6917456000     -0.0009644400
  15       0.2916736000      0.0065994200
  16       0.1231441000     -0.0052226600
  17       0.0492576000      0.0002938500
 S 17 
   1  346348.2300000000      0.0000228000
   2   49391.1460000000      0.0000742100
   3   14610.9900000000      0.0001671900
   4    5187.2095000000      0.0004737200
   5    1980.9676000000      0.0013310600
   6     784.6313900000      0.0037980100
   7     317.3277900000      0.0105810799
   8     130.0197600000      0.0260196998
   9      53.7382080000      0.0527900097
  10      22.3458960000      0.0519187797
  11       9.3332512000     -0.0569282797
  12       3.9111868000     -0.2909518982
  13       1.6432066000     -0.3163282781
  14       0.6917456000      0.2930993782
  15       0.2916736000      0.6678742660
  16       0.1231441000      0.2872519883
  17       0.0492576000      0.0151688699
 S 17 
   1  346348.2300000000     -0.0000234200
   2   49391.1460000000     -0.0000763700
   3   14610.9900000000     -0.0001708900
   4    5187.2095000000     -0.0004899900
   5    1980.9676000000     -0.0013529300
   6     784.6313900000     -0.0039282000
   7     317.3277900000     -0.0106763700
   8     130.0197600000     -0.0266181300
   9      53.7382080000     -0.0518302700
  10      22.3458960000     -0.0536224500
  11       9.3332512000      0.0708061100
  12       3.9111868000      0.2862498100
  13       1.6432066000      0.4962630700
  14       0.6917456000     -1.0710928201
  15       0.2916736000     -0.7920747001
  16       0.1231441000      1.1988185301
  17       0.0492576000      0.3247575000
 S 17 
   1  346348.2300000000      0.0000338900
   2   49391.1460000000      0.0001080700
   3   14610.9900000000      0.0002591100
   4    5187.2095000000      0.0006557500
   5    1980.9676000000      0.0021438200
   6     784.6313900000      0.0051887500
   7     317.3277900000      0.0175307300
   8     130.0197600000      0.0367282101
   9      53.7382080000      0.0984078002
  10      22.3458960000      0.0619843901
  11       9.3332512000     -0.0870655502
  12       3.9111868000     -0.7402903815
  13       1.6432066000     -0.2511528605
  14       0.6917456000      3.1197276262
  15       0.2916736000     -3.2657334365
  16       0.1231441000      0.4920158210
  17       0.0492576000      0.8345623917
 P 12 
   1    1129.1269000000      0.0009058600
   2     274.0351500000      0.0060003300
   3      97.4025840000      0.0253116602
   4      38.0855180000      0.0919894107
   5      15.4710330000      0.2416502819
   6       6.4056590000      0.4102909632
   7       2.6812828000      0.3521928728
   8       1.1300050000      0.0828164507
   9       0.4783995000      0.0000928000
  10       0.2031805000     -0.0022389700
  11       0.0864923000     -0.0013105000
  12       0.0345969000     -0.0002209200
 P 12 
   1    1129.1269000000     -0.0002245400
   2     274.0351500000     -0.0014885000
   3      97.4025840000     -0.0063494199
   4      38.0855180000     -0.0234428198
   5      15.4710330000     -0.0637025693
   6       6.4056590000     -0.1119708288
   7       2.6812828000     -0.1034727789
   8       1.1300050000      0.1090388789
   9       0.4783995000      0.4183874056
  10       0.2031805000      0.4369409054
  11       0.0864923000      0.1861970080
  12       0.0345969000      0.0283711897
 P 12 
   1    1129.1269000000      0.0002148100
   2     274.0351500000      0.0013786800
   3      97.4025840000      0.0061270600
   4      38.0855180000      0.0217045700
   5      15.4710330000      0.0624373400
   6       6.4056590000      0.1010861900
   7       2.6812828000      0.1170823100
   8       1.1300050000     -0.1626182800
   9       0.4783995000     -0.6646128299
  10       0.2031805000     -0.0025671900
  11       0.0864923000      0.7102817299
  12       0.0345969000      0.3213441399
 P 12 
   1    1129.1269000000     -0.0003343800
   2     274.0351500000     -0.0018333100
   3      97.4025840000     -0.0098956400
   4      38.0855180000     -0.0285233600
   5      15.4710330000     -0.1046413801
   6       6.4056590000     -0.1132883801
   7       2.6812828000     -0.2785634503
   8       1.1300050000      0.7352483107
   9       0.4783995000      0.6335807606
  10       0.2031805000     -1.5012724614
  11       0.0864923000      0.2467031202
  12       0.0345969000      0.7157853907
 D 5 
   1       3.0053679000      0.0358149997
   2       1.2172976000      0.1673418584
   3       0.4930556000      0.5760525045
   4       0.1997078000      0.3501406566
   5       0.0798831000      0.0446746096
 D 5 
   1       3.0053679000     -0.0833935699
   2       1.2172976000      0.5141401396
   3       0.4930556000      0.5282255395
   4       0.1997078000     -0.8555141893
   5       0.0798831000     -0.2680324398
 F 4 
   1       1.1000988000      0.2161817184
   2       0.5272133000      0.5455285260
   3       0.2526627000      0.3289330076
   4       0.1010651000      0.0748646694
  end;

 # Basis set for element : Cu
 NewGTO Cu
 S 21 
   1  9148883.0000000000      0.0001172200
   2  1369956.0000000000      0.0003315500
   3  311782.6000000000      0.0008824300
   4   88318.8000000000      0.0021722900
   5   28815.5300000000      0.0052954701
   6   10403.4600000000      0.0129663001
   7    4057.7910000000      0.0318805003
   8    1682.9740000000      0.0757656907
   9     733.7543000000      0.1624463715
  10     333.2677000000      0.2843595927
  11     156.4338000000      0.3417364333
  12      74.6972100000      0.2095508720
  13      33.3226200000      0.0354475103
  14      16.6223700000     -0.0024399600
  15       8.2082600000      0.0014699000
  16       3.6094000000     -0.0006437900
  17       1.6834490000      0.0002473800
  18       0.7337570000     -0.0000811800
  19       0.1102070000      0.0000161500
  20       0.0387860000     -0.0000123300
  21       0.0155140000      0.0000045200
 S 21 
   1  9148883.0000000000     -0.0000367500
   2  1369956.0000000000     -0.0001040300
   3  311782.6000000000     -0.0002773300
   4   88318.8000000000     -0.0006841700
   5   28815.5300000000     -0.0016768600
   6   10403.4600000000     -0.0041346000
   7    4057.7910000000     -0.0103512700
   8    1682.9740000000     -0.0253479100
   9     733.7543000000     -0.0583694699
  10     333.2677000000     -0.1167328398
  11     156.4338000000     -0.1846685996
  12      74.6972100000     -0.1470089897
  13      33.3226200000      0.1848325696
  14      16.6223700000      0.5677360889
  15       8.2082600000      0.3795609193
  16       3.6094000000      0.0470375499
  17       1.6834490000     -0.0007278300
  18       0.7337570000      0.0010297600
  19       0.1102070000     -0.0000702000
  20       0.0387860000      0.0000709000
  21       0.0155140000     -0.0000245400
 S 21 
   1  9148883.0000000000      0.0000138300
   2  1369956.0000000000      0.0000391400
   3  311782.6000000000      0.0001043900
   4   88318.8000000000      0.0002574500
   5   28815.5300000000      0.0006320300
   6   10403.4600000000      0.0015571800
   7    4057.7910000000      0.0039165900
   8    1682.9740000000      0.0095947599
   9     733.7543000000      0.0223883699
  10     333.2677000000      0.0452860597
  11     156.4338000000      0.0749837795
  12      74.6972100000      0.0618816996
  13      33.3226200000     -0.0904732694
  14      16.6223700000     -0.3928847174
  15       8.2082600000     -0.3566495576
  16       3.6094000000      0.3455479277
  17       1.6834490000      0.7063919653
  18       0.7337570000      0.2533591083
  19       0.1102070000      0.0065874900
  20       0.0387860000     -0.0004424700
  21       0.0155140000      0.0007233800
 S 21 
   1  9148883.0000000000     -0.0000027100
   2  1369956.0000000000     -0.0000076600
   3  311782.6000000000     -0.0000204700
   4   88318.8000000000     -0.0000503000
   5   28815.5300000000     -0.0001244200
   6   10403.4600000000     -0.0003026900
   7    4057.7910000000     -0.0007762800
   8    1682.9740000000     -0.0018524000
   9     733.7543000000     -0.0044827000
  10     333.2677000000     -0.0086602401
  11     156.4338000000     -0.0154472601
  12      74.6972100000     -0.0108986401
  13      33.3226200000      0.0146786701
  14      16.6223700000      0.0915412206
  15       8.2082600000      0.0633085704
  16       3.6094000000     -0.0609387904
  17       1.6834490000     -0.2714854517
  18       0.7337570000     -0.1013894406
  19       0.1102070000      0.7121218043
  20       0.0387860000      0.3461317521
  21       0.0155140000      0.0719870904
 S 21 
   1  9148883.0000000000      0.0000034600
   2  1369956.0000000000      0.0000097900
   3  311782.6000000000      0.0000262600
   4   88318.8000000000      0.0000639200
   5   28815.5300000000      0.0001608700
   6   10403.4600000000      0.0003802300
   7    4057.7910000000      0.0010171600
   8    1682.9740000000      0.0022915200
   9     733.7543000000      0.0059749700
  10     333.2677000000      0.0104469500
  11     156.4338000000      0.0215158300
  12      74.6972100000      0.0103012800
  13      33.3226200000     -0.0098432400
  14      16.6223700000     -0.1429262997
  15       8.2082600000     -0.0561270699
  16       3.6094000000      0.0913564998
  17       1.6834490000      0.4583140189
  18       0.7337570000     -0.1972673995
  19       0.1102070000     -1.3031015670
  20       0.0387860000      0.8797556780
  21       0.0155140000      0.5731088887
 S 21 
   1  9148883.0000000000     -0.0000140100
   2  1369956.0000000000     -0.0000395900
   3  311782.6000000000     -0.0001061200
   4   88318.8000000000     -0.0002590000
   5   28815.5300000000     -0.0006486500
   6   10403.4600000000     -0.0015477000
   7    4057.7910000000     -0.0040834200
   8    1682.9740000000     -0.0094020600
   9     733.7543000000     -0.0238911700
  10     333.2677000000     -0.0435983200
  11     156.4338000000     -0.0858885701
  12      74.6972100000     -0.0473486501
  13      33.3226200000      0.0638259201
  14      16.6223700000      0.5936354107
  15       8.2082600000      0.4150606205
  16       3.6094000000     -1.7002794219
  17       1.6834490000     -0.2979995603
  18       0.7337570000      1.7071942519
  19       0.1102070000     -0.6560005307
  20       0.0387860000     -0.3192452404
  21       0.0155140000      0.6177245607
 P 15 
   1    9713.2530000000      0.0003998700
   2    2300.8890000000      0.0021015700
   3     746.7706000000      0.0100109700
   4     284.6806000000      0.0383603898
   5     119.9999000000      0.1162675595
   6      54.0738600000      0.2589983089
   7      25.3732100000      0.3842822584
   8      12.2096200000      0.2991120987
   9       5.7574210000      0.0800067197
  10       2.6734020000      0.0031944000
  11       1.1868350000      0.0014725200
  12       0.4815930000     -0.0002339100
  13       0.1926370000      0.0002076100
  14       0.0770550000     -0.0000896300
  15       0.0308220000      0.0000278300
 P 15 
   1    9713.2530000000     -0.0001487900
   2    2300.8890000000     -0.0007826200
   3     746.7706000000     -0.0037622900
   4     284.6806000000     -0.0145796799
   5     119.9999000000     -0.0457109297
   6      54.0738600000     -0.1059301293
   7      25.3732100000     -0.1683622789
   8      12.2096200000     -0.1037321293
   9       5.7574210000      0.2108315487
  10       2.6734020000      0.4891644269
  11       1.1868350000      0.3846863776
  12       0.4815930000      0.0852933795
  13       0.1926370000     -0.0016104500
  14       0.0770550000      0.0020653000
  15       0.0308220000     -0.0006417500
 P 15 
   1    9713.2530000000      0.0000505300
   2    2300.8890000000      0.0002671900
   3     746.7706000000      0.0012771800
   4     284.6806000000      0.0049976000
   5     119.9999000000      0.0156137599
   6      54.0738600000      0.0368970098
   7      25.3732100000      0.0579646897
   8      12.2096200000      0.0379196598
   9       5.7574210000     -0.1170649894
  10       2.6734020000     -0.2091225689
  11       1.1868350000     -0.0580053197
  12       0.4815930000      0.1643073591
  13       0.1926370000      0.5288546572
  14       0.0770550000      0.3737301580
  15       0.0308220000      0.0839986596
 P 15 
   1    9713.2530000000     -0.0001587800
   2    2300.8890000000     -0.0008535900
   3     746.7706000000     -0.0039991900
   4     284.6806000000     -0.0160809199
   5     119.9999000000     -0.0492486397
   6      54.0738600000     -0.1216567894
   7      25.3732100000     -0.1771336691
   8      12.2096200000     -0.1444819692
   9       5.7574210000      0.6474331066
  10       2.6734020000      0.5479769171
  11       1.1868350000     -0.7818032059
  12       0.4815930000     -0.5260777772
  13       0.1926370000      0.2243717688
  14       0.0770550000      0.3339245282
  15       0.0308220000      0.1444637392
 P 15 
   1    9713.2530000000      0.0001267900
   2    2300.8890000000      0.0006839700
   3     746.7706000000      0.0032029100
   4     284.6806000000      0.0130135100
   5     119.9999000000      0.0402137099
   6      54.0738600000      0.1015010898
   7      25.3732100000      0.1370095397
   8      12.2096200000      0.1062897198
   9       5.7574210000     -0.8339026482
  10       2.6734020000      0.1441200197
  11       1.1868350000      0.9830123878
  12       0.4815930000     -0.5295641788
  13       0.1926370000     -0.7530398383
  14       0.0770550000      0.4428869990
  15       0.0308220000      0.5751158887
 D 10 
   1     249.3497000000      0.0013456100
   2      74.6383700000      0.0108098300
   3      28.3764100000      0.0473379301
   4      11.9489300000      0.1377258202
   5       5.3176460000      0.2626383304
   6       2.3644170000      0.3347040105
   7       1.0123860000      0.3100059705
   8       0.4067730000      0.2131681903
   9       0.1473310000      0.0786536501
  10       0.0589320000      0.0060309600
 D 10 
   1     249.3497000000     -0.0015835900
   2      74.6383700000     -0.0128111601
   3      28.3764100000     -0.0564267902
   4      11.9489300000     -0.1664139307
   5       5.3176460000     -0.3510601415
   6       2.3644170000     -0.2371789010
   7       1.0123860000      0.2199464110
   8       0.4067730000      0.4884136321
   9       0.1473310000      0.2953713113
  10       0.0589320000      0.0429553902
 D 10 
   1     249.3497000000      0.0019111600
   2      74.6383700000      0.0177249500
   3      28.3764100000      0.0705638099
   4      11.9489300000      0.2290610097
   5       5.3176460000      0.4393851094
   6       2.3644170000     -0.2673990797
   7       1.0123860000     -0.6259062392
   8       0.4067730000      0.1221133998
   9       0.1473310000      0.5368362893
  10       0.0589320000      0.1975005497
 F 6 
   1      15.4333000000      0.0368206299
   2       6.1172000000      0.2459141793
   3       2.4246000000      0.5011268786
   4       0.9610000000      0.3585064790
   5       0.3809000000      0.1472806196
   6       0.1510000000      0.0256474799
 F 6 
   1      15.4333000000     -0.0620033603
   2       6.1172000000     -0.5287666929
   3       2.4246000000     -0.2907838616
   4       0.9610000000      0.5212415728
   5       0.3809000000      0.3753220521
   6       0.1510000000      0.1065979806
 G 4 
   1       8.7286000000      0.1690384791
   2       3.4308000000      0.6065418469
   3       1.3485000000      0.3797989880
   4       0.5300000000      0.1036775695
  end;

---------------------------------
AUXILIARY/J BASIS SET INFORMATION
---------------------------------
There are 4 groups of distinct atoms

 Group   1 Type Cu  : 23s20p18d17f13g5h contracted to 23s20p18d17f13g5h pattern {11111111111111111111111/11111111111111111111/111111111111111111/11111111111111111/1111111111111/11111}
 Group   2 Type S   : 20s17p16d7f contracted to 20s17p16d7f pattern {11111111111111111111/11111111111111111/1111111111111111/1111111}
 Group   3 Type C   : 17s14p13d4f contracted to 17s14p13d4f pattern {11111111111111111/11111111111111/1111111111111/1111}
 Group   4 Type H   : 12s5p4d3f contracted to 12s5p4d3f pattern {111111111111/11111/1111/111}

Atom   0Cu   basis set group =>   1
Atom   1S    basis set group =>   2
Atom   2C    basis set group =>   3
Atom   3S    basis set group =>   2
Atom   4C    basis set group =>   3
Atom   5S    basis set group =>   2
Atom   6C    basis set group =>   3
Atom   7S    basis set group =>   2
Atom   8C    basis set group =>   3
Atom   9C    basis set group =>   3
Atom  10C    basis set group =>   3
Atom  11C    basis set group =>   3
Atom  12H    basis set group =>   4
Atom  13C    basis set group =>   3
Atom  14H    basis set group =>   4
Atom  15H    basis set group =>   4
Atom  16H    basis set group =>   4
Atom  17C    basis set group =>   3
Atom  18C    basis set group =>   3
Atom  19C    basis set group =>   3
Atom  20H    basis set group =>   4
Atom  21C    basis set group =>   3
Atom  22H    basis set group =>   4
Atom  23H    basis set group =>   4
Atom  24H    basis set group =>   4

-------------------------------------
AUXILIARY/J BASIS SET IN INPUT FORMAT
-------------------------------------

 # Auxiliary/J basis set for element : H 
 NewAuxJGTO H 
 S 1 
   1      35.9414656527      1.0000000000
 S 1 
   1      19.9674809182      1.0000000000
 S 1 
   1      11.0930449545      1.0000000000
 S 1 
   1       6.1628027525      1.0000000000
 S 1 
   1       3.4237793070      1.0000000000
 S 1 
   1       1.9020996150      1.0000000000
 S 1 
   1       1.0567220083      1.0000000000
 S 1 
   1       0.5870677824      1.0000000000
 S 1 
   1       0.3261487680      1.0000000000
 S 1 
   1       0.1811937600      1.0000000000
 S 1 
   1       0.1006632000      1.0000000000
 S 1 
   1       0.0559240000      1.0000000000
 P 1 
   1       2.0286240000      1.0000000000
 P 1 
   1       1.0143120000      1.0000000000
 P 1 
   1       0.5071560000      1.0000000000
 P 1 
   1       0.2535780000      1.0000000000
 P 1 
   1       0.1267890000      1.0000000000
 D 1 
   1       2.1046197920      1.0000000000
 D 1 
   1       0.9566453600      1.0000000000
 D 1 
   1       0.4348388000      1.0000000000
 D 1 
   1       0.1976540000      1.0000000000
 F 1 
   1       1.8869562800      1.0000000000
 F 1 
   1       0.8577074000      1.0000000000
 F 1 
   1       0.3898670000      1.0000000000
  end;

 # Auxiliary/J basis set for element : C 
 NewAuxJGTO C 
 S 1 
   1     556.1930524224      1.0000000000
 S 1 
   1     308.9961402347      1.0000000000
 S 1 
   1     171.6645223526      1.0000000000
 S 1 
   1      95.3691790848      1.0000000000
 S 1 
   1      52.9828772693      1.0000000000
 S 1 
   1      29.4349318163      1.0000000000
 S 1 
   1      16.3527398979      1.0000000000
 S 1 
   1       9.0848554989      1.0000000000
 S 1 
   1       5.0471419438      1.0000000000
 S 1 
   1       2.8039677466      1.0000000000
 S 1 
   1       1.5577598592      1.0000000000
 S 1 
   1       0.8654221440      1.0000000000
 S 1 
   1       0.4807900800      1.0000000000
 S 1 
   1       0.2671056000      1.0000000000
 S 1 
   1       0.1483920000      1.0000000000
 S 1 
   1       0.0824400000      1.0000000000
 S 1 
   1       0.0458000000      1.0000000000
 P 1 
   1      95.3691790848      1.0000000000
 P 1 
   1      52.9828772693      1.0000000000
 P 1 
   1      29.4349318163      1.0000000000
 P 1 
   1      16.3527398979      1.0000000000
 P 1 
   1       9.0848554989      1.0000000000
 P 1 
   1       5.0471419438      1.0000000000
 P 1 
   1       2.8039677466      1.0000000000
 P 1 
   1       1.5577598592      1.0000000000
 P 1 
   1       0.8654221440      1.0000000000
 P 1 
   1       0.4807900800      1.0000000000
 P 1 
   1       0.2671056000      1.0000000000
 P 1 
   1       0.1483920000      1.0000000000
 P 1 
   1       0.0824400000      1.0000000000
 P 1 
   1       0.0458000000      1.0000000000
 D 1 
   1      52.9828772693      1.0000000000
 D 1 
   1      29.4349318163      1.0000000000
 D 1 
   1      16.3527398979      1.0000000000
 D 1 
   1       9.0848554989      1.0000000000
 D 1 
   1       5.0471419438      1.0000000000
 D 1 
   1       2.8039677466      1.0000000000
 D 1 
   1       1.5577598592      1.0000000000
 D 1 
   1       0.8654221440      1.0000000000
 D 1 
   1       0.4807900800      1.0000000000
 D 1 
   1       0.2671056000      1.0000000000
 D 1 
   1       0.1483920000      1.0000000000
 D 1 
   1       0.0824400000      1.0000000000
 D 1 
   1       0.0458000000      1.0000000000
 F 1 
   1       1.1112572240      1.0000000000
 F 1 
   1       0.5051169200      1.0000000000
 F 1 
   1       0.2295986000      1.0000000000
 F 1 
   1       0.1043630000      1.0000000000
  end;

 # Auxiliary/J basis set for element : S 
 NewAuxJGTO S 
 S 1 
   1    4900.5494839448      1.0000000000
 S 1 
   1    2722.5274910805      1.0000000000
 S 1 
   1    1512.5152728225      1.0000000000
 S 1 
   1     840.2862626792      1.0000000000
 S 1 
   1     466.8257014884      1.0000000000
 S 1 
   1     259.3476119380      1.0000000000
 S 1 
   1     144.0820066322      1.0000000000
 S 1 
   1      80.0455592401      1.0000000000
 S 1 
   1      44.4697551334      1.0000000000
 S 1 
   1      24.7054195186      1.0000000000
 S 1 
   1      13.7252330659      1.0000000000
 S 1 
   1       7.6251294810      1.0000000000
 S 1 
   1       4.2361830450      1.0000000000
 S 1 
   1       2.3534350250      1.0000000000
 S 1 
   1       1.3074639028      1.0000000000
 S 1 
   1       0.7263688349      1.0000000000
 S 1 
   1       0.4035382416      1.0000000000
 S 1 
   1       0.2241879120      1.0000000000
 S 1 
   1       0.1245488400      1.0000000000
 S 1 
   1       0.0691938000      1.0000000000
 P 1 
   1     840.2862626792      1.0000000000
 P 1 
   1     466.8257014884      1.0000000000
 P 1 
   1     259.3476119380      1.0000000000
 P 1 
   1     144.0820066322      1.0000000000
 P 1 
   1      80.0455592401      1.0000000000
 P 1 
   1      44.4697551334      1.0000000000
 P 1 
   1      24.7054195186      1.0000000000
 P 1 
   1      13.7252330659      1.0000000000
 P 1 
   1       7.6251294810      1.0000000000
 P 1 
   1       4.2361830450      1.0000000000
 P 1 
   1       2.3534350250      1.0000000000
 P 1 
   1       1.3074639028      1.0000000000
 P 1 
   1       0.7263688349      1.0000000000
 P 1 
   1       0.4035382416      1.0000000000
 P 1 
   1       0.2241879120      1.0000000000
 P 1 
   1       0.1245488400      1.0000000000
 P 1 
   1       0.0691938000      1.0000000000
 D 1 
   1     466.8257014884      1.0000000000
 D 1 
   1     259.3476119380      1.0000000000
 D 1 
   1     144.0820066322      1.0000000000
 D 1 
   1      80.0455592401      1.0000000000
 D 1 
   1      44.4697551334      1.0000000000
 D 1 
   1      24.7054195186      1.0000000000
 D 1 
   1      13.7252330659      1.0000000000
 D 1 
   1       7.6251294810      1.0000000000
 D 1 
   1       4.2361830450      1.0000000000
 D 1 
   1       2.3534350250      1.0000000000
 D 1 
   1       1.3074639028      1.0000000000
 D 1 
   1       0.7263688349      1.0000000000
 D 1 
   1       0.4035382416      1.0000000000
 D 1 
   1       0.2241879120      1.0000000000
 D 1 
   1       0.1245488400      1.0000000000
 D 1 
   1       0.0691938000      1.0000000000
 F 1 
   1      12.9797314099      1.0000000000
 F 1 
   1       5.8998779136      1.0000000000
 F 1 
   1       2.6817626880      1.0000000000
 F 1 
   1       1.2189830400      1.0000000000
 F 1 
   1       0.5540832000      1.0000000000
 F 1 
   1       0.2518560000      1.0000000000
 F 1 
   1       0.1144800000      1.0000000000
  end;

 # Auxiliary/J basis set for element : Cu
 NewAuxJGTO Cu
 S 1 
   1   12815.8936556437      1.0000000000
 S 1 
   1    7119.9409198021      1.0000000000
 S 1 
   1    3955.5227332234      1.0000000000
 S 1 
   1    2197.5126295685      1.0000000000
 S 1 
   1    1220.8403497603      1.0000000000
 S 1 
   1     678.2446387557      1.0000000000
 S 1 
   1     376.8025770865      1.0000000000
 S 1 
   1     209.3347650481      1.0000000000
 S 1 
   1     116.2970916934      1.0000000000
 S 1 
   1      64.6094953852      1.0000000000
 S 1 
   1      35.8941641029      1.0000000000
 S 1 
   1      19.9412022794      1.0000000000
 S 1 
   1      11.0784457108      1.0000000000
 S 1 
   1       6.1546920615      1.0000000000
 S 1 
   1       3.4192733675      1.0000000000
 S 1 
   1       1.8995963153      1.0000000000
 S 1 
   1       1.0553312863      1.0000000000
 S 1 
   1       0.5862951590      1.0000000000
 S 1 
   1       0.3257195328      1.0000000000
 S 1 
   1       0.1809552960      1.0000000000
 S 1 
   1       0.1005307200      1.0000000000
 S 1 
   1       0.0558504000      1.0000000000
 S 1 
   1       0.0310280000      1.0000000000
 P 1 
   1    3281.6792962385      1.0000000000
 P 1 
   1    1823.1551645769      1.0000000000
 P 1 
   1    1012.8639803205      1.0000000000
 P 1 
   1     562.7022112892      1.0000000000
 P 1 
   1     312.6123396051      1.0000000000
 P 1 
   1     173.6735220028      1.0000000000
 P 1 
   1      96.4852900016      1.0000000000
 P 1 
   1      53.6029388898      1.0000000000
 P 1 
   1      29.7794104943      1.0000000000
 P 1 
   1      16.5441169413      1.0000000000
 P 1 
   1       9.1911760785      1.0000000000
 P 1 
   1       5.1062089325      1.0000000000
 P 1 
   1       2.8367827403      1.0000000000
 P 1 
   1       1.5759904113      1.0000000000
 P 1 
   1       0.8755502285      1.0000000000
 P 1 
   1       0.4864167936      1.0000000000
 P 1 
   1       0.2702315520      1.0000000000
 P 1 
   1       0.1501286400      1.0000000000
 P 1 
   1       0.0834048000      1.0000000000
 P 1 
   1       0.0463360000      1.0000000000
 D 1 
   1    1347.4833218853      1.0000000000
 D 1 
   1     748.6018454918      1.0000000000
 D 1 
   1     415.8899141621      1.0000000000
 D 1 
   1     231.0499523123      1.0000000000
 D 1 
   1     128.3610846179      1.0000000000
 D 1 
   1      71.3117136766      1.0000000000
 D 1 
   1      39.6176187092      1.0000000000
 D 1 
   1      22.0097881718      1.0000000000
 D 1 
   1      12.2276600954      1.0000000000
 D 1 
   1       6.7931444975      1.0000000000
 D 1 
   1       3.7739691653      1.0000000000
 D 1 
   1       2.0966495363      1.0000000000
 D 1 
   1       1.1648052979      1.0000000000
 D 1 
   1       0.6471140544      1.0000000000
 D 1 
   1       0.3595078080      1.0000000000
 D 1 
   1       0.1997265600      1.0000000000
 D 1 
   1       0.1109592000      1.0000000000
 D 1 
   1       0.0616440000      1.0000000000
 F 1 
   1    1089.9683674044      1.0000000000
 F 1 
   1     605.5379818913      1.0000000000
 F 1 
   1     336.4099899396      1.0000000000
 F 1 
   1     186.8944388553      1.0000000000
 F 1 
   1     103.8302438085      1.0000000000
 F 1 
   1      57.6834687825      1.0000000000
 F 1 
   1      32.0463715458      1.0000000000
 F 1 
   1      17.8035397477      1.0000000000
 F 1 
   1       9.8908554154      1.0000000000
 F 1 
   1       5.4949196752      1.0000000000
 F 1 
   1       3.0527331529      1.0000000000
 F 1 
   1       1.6959628627      1.0000000000
 F 1 
   1       0.9422015904      1.0000000000
 F 1 
   1       0.5234453280      1.0000000000
 F 1 
   1       0.2908029600      1.0000000000
 F 1 
   1       0.1615572000      1.0000000000
 F 1 
   1       0.0897540000      1.0000000000
 G 1 
   1     136.3487739404      1.0000000000
 G 1 
   1      75.7493188558      1.0000000000
 G 1 
   1      42.0829549199      1.0000000000
 G 1 
   1      23.3794193999      1.0000000000
 G 1 
   1      12.9885663333      1.0000000000
 G 1 
   1       7.2158701852      1.0000000000
 G 1 
   1       4.0088167695      1.0000000000
 G 1 
   1       2.2271204275      1.0000000000
 G 1 
   1       1.2372891264      1.0000000000
 G 1 
   1       0.6873828480      1.0000000000
 G 1 
   1       0.3818793600      1.0000000000
 G 1 
   1       0.2121552000      1.0000000000
 G 1 
   1       0.1178640000      1.0000000000
 H 1 
   1       5.8747580812      1.0000000000
 H 1 
   1       2.5542426440      1.0000000000
 H 1 
   1       1.1105402800      1.0000000000
 H 1 
   1       0.4828436000      1.0000000000
 H 1 
   1       0.2099320000      1.0000000000
  end;

---------------------------------
AUXILIARY/C BASIS SET INFORMATION
---------------------------------
There are 4 groups of distinct atoms

 Group   1 Type Cu  : 23s20p18d17f13g5h contracted to 23s20p18d17f13g5h pattern {11111111111111111111111/11111111111111111111/111111111111111111/11111111111111111/1111111111111/11111}
 Group   2 Type S   : 20s17p16d7f contracted to 20s17p16d7f pattern {11111111111111111111/11111111111111111/1111111111111111/1111111}
 Group   3 Type C   : 17s14p13d4f contracted to 17s14p13d4f pattern {11111111111111111/11111111111111/1111111111111/1111}
 Group   4 Type H   : 12s5p4d3f contracted to 12s5p4d3f pattern {111111111111/11111/1111/111}

Atom   0Cu   basis set group =>   1
Atom   1S    basis set group =>   2
Atom   2C    basis set group =>   3
Atom   3S    basis set group =>   2
Atom   4C    basis set group =>   3
Atom   5S    basis set group =>   2
Atom   6C    basis set group =>   3
Atom   7S    basis set group =>   2
Atom   8C    basis set group =>   3
Atom   9C    basis set group =>   3
Atom  10C    basis set group =>   3
Atom  11C    basis set group =>   3
Atom  12H    basis set group =>   4
Atom  13C    basis set group =>   3
Atom  14H    basis set group =>   4
Atom  15H    basis set group =>   4
Atom  16H    basis set group =>   4
Atom  17C    basis set group =>   3
Atom  18C    basis set group =>   3
Atom  19C    basis set group =>   3
Atom  20H    basis set group =>   4
Atom  21C    basis set group =>   3
Atom  22H    basis set group =>   4
Atom  23H    basis set group =>   4
Atom  24H    basis set group =>   4

-------------------------------------
AUXILIARY/C BASIS SET IN INPUT FORMAT
-------------------------------------

 # Auxiliary/C basis set for element : H 
 NewAuxCGTO H 
 S 1 
   1      35.9414656527      1.0000000000
 S 1 
   1      19.9674809182      1.0000000000
 S 1 
   1      11.0930449545      1.0000000000
 S 1 
   1       6.1628027525      1.0000000000
 S 1 
   1       3.4237793070      1.0000000000
 S 1 
   1       1.9020996150      1.0000000000
 S 1 
   1       1.0567220083      1.0000000000
 S 1 
   1       0.5870677824      1.0000000000
 S 1 
   1       0.3261487680      1.0000000000
 S 1 
   1       0.1811937600      1.0000000000
 S 1 
   1       0.1006632000      1.0000000000
 S 1 
   1       0.0559240000      1.0000000000
 P 1 
   1       2.0286240000      1.0000000000
 P 1 
   1       1.0143120000      1.0000000000
 P 1 
   1       0.5071560000      1.0000000000
 P 1 
   1       0.2535780000      1.0000000000
 P 1 
   1       0.1267890000      1.0000000000
 D 1 
   1       2.1046197920      1.0000000000
 D 1 
   1       0.9566453600      1.0000000000
 D 1 
   1       0.4348388000      1.0000000000
 D 1 
   1       0.1976540000      1.0000000000
 F 1 
   1       1.8869562800      1.0000000000
 F 1 
   1       0.8577074000      1.0000000000
 F 1 
   1       0.3898670000      1.0000000000
  end;

 # Auxiliary/C basis set for element : C 
 NewAuxCGTO C 
 S 1 
   1     556.1930524224      1.0000000000
 S 1 
   1     308.9961402347      1.0000000000
 S 1 
   1     171.6645223526      1.0000000000
 S 1 
   1      95.3691790848      1.0000000000
 S 1 
   1      52.9828772693      1.0000000000
 S 1 
   1      29.4349318163      1.0000000000
 S 1 
   1      16.3527398979      1.0000000000
 S 1 
   1       9.0848554989      1.0000000000
 S 1 
   1       5.0471419438      1.0000000000
 S 1 
   1       2.8039677466      1.0000000000
 S 1 
   1       1.5577598592      1.0000000000
 S 1 
   1       0.8654221440      1.0000000000
 S 1 
   1       0.4807900800      1.0000000000
 S 1 
   1       0.2671056000      1.0000000000
 S 1 
   1       0.1483920000      1.0000000000
 S 1 
   1       0.0824400000      1.0000000000
 S 1 
   1       0.0458000000      1.0000000000
 P 1 
   1      95.3691790848      1.0000000000
 P 1 
   1      52.9828772693      1.0000000000
 P 1 
   1      29.4349318163      1.0000000000
 P 1 
   1      16.3527398979      1.0000000000
 P 1 
   1       9.0848554989      1.0000000000
 P 1 
   1       5.0471419438      1.0000000000
 P 1 
   1       2.8039677466      1.0000000000
 P 1 
   1       1.5577598592      1.0000000000
 P 1 
   1       0.8654221440      1.0000000000
 P 1 
   1       0.4807900800      1.0000000000
 P 1 
   1       0.2671056000      1.0000000000
 P 1 
   1       0.1483920000      1.0000000000
 P 1 
   1       0.0824400000      1.0000000000
 P 1 
   1       0.0458000000      1.0000000000
 D 1 
   1      52.9828772693      1.0000000000
 D 1 
   1      29.4349318163      1.0000000000
 D 1 
   1      16.3527398979      1.0000000000
 D 1 
   1       9.0848554989      1.0000000000
 D 1 
   1       5.0471419438      1.0000000000
 D 1 
   1       2.8039677466      1.0000000000
 D 1 
   1       1.5577598592      1.0000000000
 D 1 
   1       0.8654221440      1.0000000000
 D 1 
   1       0.4807900800      1.0000000000
 D 1 
   1       0.2671056000      1.0000000000
 D 1 
   1       0.1483920000      1.0000000000
 D 1 
   1       0.0824400000      1.0000000000
 D 1 
   1       0.0458000000      1.0000000000
 F 1 
   1       1.1112572240      1.0000000000
 F 1 
   1       0.5051169200      1.0000000000
 F 1 
   1       0.2295986000      1.0000000000
 F 1 
   1       0.1043630000      1.0000000000
  end;

 # Auxiliary/C basis set for element : S 
 NewAuxCGTO S 
 S 1 
   1    4900.5494839448      1.0000000000
 S 1 
   1    2722.5274910805      1.0000000000
 S 1 
   1    1512.5152728225      1.0000000000
 S 1 
   1     840.2862626792      1.0000000000
 S 1 
   1     466.8257014884      1.0000000000
 S 1 
   1     259.3476119380      1.0000000000
 S 1 
   1     144.0820066322      1.0000000000
 S 1 
   1      80.0455592401      1.0000000000
 S 1 
   1      44.4697551334      1.0000000000
 S 1 
   1      24.7054195186      1.0000000000
 S 1 
   1      13.7252330659      1.0000000000
 S 1 
   1       7.6251294810      1.0000000000
 S 1 
   1       4.2361830450      1.0000000000
 S 1 
   1       2.3534350250      1.0000000000
 S 1 
   1       1.3074639028      1.0000000000
 S 1 
   1       0.7263688349      1.0000000000
 S 1 
   1       0.4035382416      1.0000000000
 S 1 
   1       0.2241879120      1.0000000000
 S 1 
   1       0.1245488400      1.0000000000
 S 1 
   1       0.0691938000      1.0000000000
 P 1 
   1     840.2862626792      1.0000000000
 P 1 
   1     466.8257014884      1.0000000000
 P 1 
   1     259.3476119380      1.0000000000
 P 1 
   1     144.0820066322      1.0000000000
 P 1 
   1      80.0455592401      1.0000000000
 P 1 
   1      44.4697551334      1.0000000000
 P 1 
   1      24.7054195186      1.0000000000
 P 1 
   1      13.7252330659      1.0000000000
 P 1 
   1       7.6251294810      1.0000000000
 P 1 
   1       4.2361830450      1.0000000000
 P 1 
   1       2.3534350250      1.0000000000
 P 1 
   1       1.3074639028      1.0000000000
 P 1 
   1       0.7263688349      1.0000000000
 P 1 
   1       0.4035382416      1.0000000000
 P 1 
   1       0.2241879120      1.0000000000
 P 1 
   1       0.1245488400      1.0000000000
 P 1 
   1       0.0691938000      1.0000000000
 D 1 
   1     466.8257014884      1.0000000000
 D 1 
   1     259.3476119380      1.0000000000
 D 1 
   1     144.0820066322      1.0000000000
 D 1 
   1      80.0455592401      1.0000000000
 D 1 
   1      44.4697551334      1.0000000000
 D 1 
   1      24.7054195186      1.0000000000
 D 1 
   1      13.7252330659      1.0000000000
 D 1 
   1       7.6251294810      1.0000000000
 D 1 
   1       4.2361830450      1.0000000000
 D 1 
   1       2.3534350250      1.0000000000
 D 1 
   1       1.3074639028      1.0000000000
 D 1 
   1       0.7263688349      1.0000000000
 D 1 
   1       0.4035382416      1.0000000000
 D 1 
   1       0.2241879120      1.0000000000
 D 1 
   1       0.1245488400      1.0000000000
 D 1 
   1       0.0691938000      1.0000000000
 F 1 
   1      12.9797314099      1.0000000000
 F 1 
   1       5.8998779136      1.0000000000
 F 1 
   1       2.6817626880      1.0000000000
 F 1 
   1       1.2189830400      1.0000000000
 F 1 
   1       0.5540832000      1.0000000000
 F 1 
   1       0.2518560000      1.0000000000
 F 1 
   1       0.1144800000      1.0000000000
  end;

 # Auxiliary/C basis set for element : Cu
 NewAuxCGTO Cu
 S 1 
   1   12815.8936556437      1.0000000000
 S 1 
   1    7119.9409198021      1.0000000000
 S 1 
   1    3955.5227332234      1.0000000000
 S 1 
   1    2197.5126295685      1.0000000000
 S 1 
   1    1220.8403497603      1.0000000000
 S 1 
   1     678.2446387557      1.0000000000
 S 1 
   1     376.8025770865      1.0000000000
 S 1 
   1     209.3347650481      1.0000000000
 S 1 
   1     116.2970916934      1.0000000000
 S 1 
   1      64.6094953852      1.0000000000
 S 1 
   1      35.8941641029      1.0000000000
 S 1 
   1      19.9412022794      1.0000000000
 S 1 
   1      11.0784457108      1.0000000000
 S 1 
   1       6.1546920615      1.0000000000
 S 1 
   1       3.4192733675      1.0000000000
 S 1 
   1       1.8995963153      1.0000000000
 S 1 
   1       1.0553312863      1.0000000000
 S 1 
   1       0.5862951590      1.0000000000
 S 1 
   1       0.3257195328      1.0000000000
 S 1 
   1       0.1809552960      1.0000000000
 S 1 
   1       0.1005307200      1.0000000000
 S 1 
   1       0.0558504000      1.0000000000
 S 1 
   1       0.0310280000      1.0000000000
 P 1 
   1    3281.6792962385      1.0000000000
 P 1 
   1    1823.1551645769      1.0000000000
 P 1 
   1    1012.8639803205      1.0000000000
 P 1 
   1     562.7022112892      1.0000000000
 P 1 
   1     312.6123396051      1.0000000000
 P 1 
   1     173.6735220028      1.0000000000
 P 1 
   1      96.4852900016      1.0000000000
 P 1 
   1      53.6029388898      1.0000000000
 P 1 
   1      29.7794104943      1.0000000000
 P 1 
   1      16.5441169413      1.0000000000
 P 1 
   1       9.1911760785      1.0000000000
 P 1 
   1       5.1062089325      1.0000000000
 P 1 
   1       2.8367827403      1.0000000000
 P 1 
   1       1.5759904113      1.0000000000
 P 1 
   1       0.8755502285      1.0000000000
 P 1 
   1       0.4864167936      1.0000000000
 P 1 
   1       0.2702315520      1.0000000000
 P 1 
   1       0.1501286400      1.0000000000
 P 1 
   1       0.0834048000      1.0000000000
 P 1 
   1       0.0463360000      1.0000000000
 D 1 
   1    1347.4833218853      1.0000000000
 D 1 
   1     748.6018454918      1.0000000000
 D 1 
   1     415.8899141621      1.0000000000
 D 1 
   1     231.0499523123      1.0000000000
 D 1 
   1     128.3610846179      1.0000000000
 D 1 
   1      71.3117136766      1.0000000000
 D 1 
   1      39.6176187092      1.0000000000
 D 1 
   1      22.0097881718      1.0000000000
 D 1 
   1      12.2276600954      1.0000000000
 D 1 
   1       6.7931444975      1.0000000000
 D 1 
   1       3.7739691653      1.0000000000
 D 1 
   1       2.0966495363      1.0000000000
 D 1 
   1       1.1648052979      1.0000000000
 D 1 
   1       0.6471140544      1.0000000000
 D 1 
   1       0.3595078080      1.0000000000
 D 1 
   1       0.1997265600      1.0000000000
 D 1 
   1       0.1109592000      1.0000000000
 D 1 
   1       0.0616440000      1.0000000000
 F 1 
   1    1089.9683674044      1.0000000000
 F 1 
   1     605.5379818913      1.0000000000
 F 1 
   1     336.4099899396      1.0000000000
 F 1 
   1     186.8944388553      1.0000000000
 F 1 
   1     103.8302438085      1.0000000000
 F 1 
   1      57.6834687825      1.0000000000
 F 1 
   1      32.0463715458      1.0000000000
 F 1 
   1      17.8035397477      1.0000000000
 F 1 
   1       9.8908554154      1.0000000000
 F 1 
   1       5.4949196752      1.0000000000
 F 1 
   1       3.0527331529      1.0000000000
 F 1 
   1       1.6959628627      1.0000000000
 F 1 
   1       0.9422015904      1.0000000000
 F 1 
   1       0.5234453280      1.0000000000
 F 1 
   1       0.2908029600      1.0000000000
 F 1 
   1       0.1615572000      1.0000000000
 F 1 
   1       0.0897540000      1.0000000000
 G 1 
   1     136.3487739404      1.0000000000
 G 1 
   1      75.7493188558      1.0000000000
 G 1 
   1      42.0829549199      1.0000000000
 G 1 
   1      23.3794193999      1.0000000000
 G 1 
   1      12.9885663333      1.0000000000
 G 1 
   1       7.2158701852      1.0000000000
 G 1 
   1       4.0088167695      1.0000000000
 G 1 
   1       2.2271204275      1.0000000000
 G 1 
   1       1.2372891264      1.0000000000
 G 1 
   1       0.6873828480      1.0000000000
 G 1 
   1       0.3818793600      1.0000000000
 G 1 
   1       0.2121552000      1.0000000000
 G 1 
   1       0.1178640000      1.0000000000
 H 1 
   1       5.8747580812      1.0000000000
 H 1 
   1       2.5542426440      1.0000000000
 H 1 
   1       1.1105402800      1.0000000000
 H 1 
   1       0.4828436000      1.0000000000
 H 1 
   1       0.2099320000      1.0000000000
  end;

----------------------------------
AUXILIARY/JK BASIS SET INFORMATION
----------------------------------
There are 4 groups of distinct atoms

 Group   1 Type Cu  : 23s20p18d17f13g5h contracted to 23s20p18d17f13g5h pattern {11111111111111111111111/11111111111111111111/111111111111111111/11111111111111111/1111111111111/11111}
 Group   2 Type S   : 20s17p16d7f contracted to 20s17p16d7f pattern {11111111111111111111/11111111111111111/1111111111111111/1111111}
 Group   3 Type C   : 17s14p13d4f contracted to 17s14p13d4f pattern {11111111111111111/11111111111111/1111111111111/1111}
 Group   4 Type H   : 12s5p4d3f contracted to 12s5p4d3f pattern {111111111111/11111/1111/111}

Atom   0Cu   basis set group =>   1
Atom   1S    basis set group =>   2
Atom   2C    basis set group =>   3
Atom   3S    basis set group =>   2
Atom   4C    basis set group =>   3
Atom   5S    basis set group =>   2
Atom   6C    basis set group =>   3
Atom   7S    basis set group =>   2
Atom   8C    basis set group =>   3
Atom   9C    basis set group =>   3
Atom  10C    basis set group =>   3
Atom  11C    basis set group =>   3
Atom  12H    basis set group =>   4
Atom  13C    basis set group =>   3
Atom  14H    basis set group =>   4
Atom  15H    basis set group =>   4
Atom  16H    basis set group =>   4
Atom  17C    basis set group =>   3
Atom  18C    basis set group =>   3
Atom  19C    basis set group =>   3
Atom  20H    basis set group =>   4
Atom  21C    basis set group =>   3
Atom  22H    basis set group =>   4
Atom  23H    basis set group =>   4
Atom  24H    basis set group =>   4

--------------------------------------
AUXILIARY/JK BASIS SET IN INPUT FORMAT
--------------------------------------

 # Auxiliary/JK basis set for element : H 
 NewAuxJKGTO H 
 S 1 
   1      35.9414656527      1.0000000000
 S 1 
   1      19.9674809182      1.0000000000
 S 1 
   1      11.0930449545      1.0000000000
 S 1 
   1       6.1628027525      1.0000000000
 S 1 
   1       3.4237793070      1.0000000000
 S 1 
   1       1.9020996150      1.0000000000
 S 1 
   1       1.0567220083      1.0000000000
 S 1 
   1       0.5870677824      1.0000000000
 S 1 
   1       0.3261487680      1.0000000000
 S 1 
   1       0.1811937600      1.0000000000
 S 1 
   1       0.1006632000      1.0000000000
 S 1 
   1       0.0559240000      1.0000000000
 P 1 
   1       2.0286240000      1.0000000000
 P 1 
   1       1.0143120000      1.0000000000
 P 1 
   1       0.5071560000      1.0000000000
 P 1 
   1       0.2535780000      1.0000000000
 P 1 
   1       0.1267890000      1.0000000000
 D 1 
   1       2.1046197920      1.0000000000
 D 1 
   1       0.9566453600      1.0000000000
 D 1 
   1       0.4348388000      1.0000000000
 D 1 
   1       0.1976540000      1.0000000000
 F 1 
   1       1.8869562800      1.0000000000
 F 1 
   1       0.8577074000      1.0000000000
 F 1 
   1       0.3898670000      1.0000000000
  end;

 # Auxiliary/JK basis set for element : C 
 NewAuxJKGTO C 
 S 1 
   1     556.1930524224      1.0000000000
 S 1 
   1     308.9961402347      1.0000000000
 S 1 
   1     171.6645223526      1.0000000000
 S 1 
   1      95.3691790848      1.0000000000
 S 1 
   1      52.9828772693      1.0000000000
 S 1 
   1      29.4349318163      1.0000000000
 S 1 
   1      16.3527398979      1.0000000000
 S 1 
   1       9.0848554989      1.0000000000
 S 1 
   1       5.0471419438      1.0000000000
 S 1 
   1       2.8039677466      1.0000000000
 S 1 
   1       1.5577598592      1.0000000000
 S 1 
   1       0.8654221440      1.0000000000
 S 1 
   1       0.4807900800      1.0000000000
 S 1 
   1       0.2671056000      1.0000000000
 S 1 
   1       0.1483920000      1.0000000000
 S 1 
   1       0.0824400000      1.0000000000
 S 1 
   1       0.0458000000      1.0000000000
 P 1 
   1      95.3691790848      1.0000000000
 P 1 
   1      52.9828772693      1.0000000000
 P 1 
   1      29.4349318163      1.0000000000
 P 1 
   1      16.3527398979      1.0000000000
 P 1 
   1       9.0848554989      1.0000000000
 P 1 
[...]
  X       0.6155473    0.0000000    0.7881000
  Y       0.7881000    0.0000000   -0.6155473
  Z      -0.0000000    1.0000000   -0.0000000

Note: Tensor is right-handed


 Quadrupole tensor eigenvalues (in MHz;Q= 0.0029 I=  1.0)
  e**2qQ            =     0.206124 MHz 
  e**2qQ/(4I*(2I-1))=     0.051531 MHz 
  eta               =     0.111156
  NOTE: the diagonal representation of the SH term I*Q*I = e**2qQ/(4I(2I-1))*[-(1-eta),-(1+eta),2]

 RHO(0)=      0.464988778 a.u.**-3

 -----------------------------------------------------------
 Nucleus  16H : A:ISTP=    1 I=  0.5 P=533.5514 MHz/au**3
                Q:ISTP=    2 I=  1.0 Q=  0.0029 barn     
 -----------------------------------------------------------
 Solving for nuclear perturbation:
Forming RHS of the CP-SCF equations         ... 
Calc. nucleus orbit integrals (SHARK)       ... done

Forming final perturbed densities           ... done
Transforming perturbed density to AO basis  ... done

 Raw HFC matrix (all values in MHz): 
 -----------------------------------
                 1.0397              -0.0838               0.0001
                -0.0780               1.8349               0.0001
                -0.0001               0.0003               0.9005

 A(FC)           1.2604               1.2604               1.2604
 A(SD)          -0.3509              -0.2277               0.5786
 A(ORB+DIA)     -0.0089              -0.0011               0.0041    A(PC) =  -0.0020
 A(ORB)         -0.0089              -0.0009               0.0039    A(PC) =  -0.0020
 A(DIA)         -0.0001              -0.0001               0.0002    A(PC) =  -0.0000
             ----------           ----------           ----------
 A(Tot)          0.9005               1.0316               1.8430    A(iso)=    1.2584
 Orientation: 
  X          -0.0008121            0.9946156           -0.1036303
  Y          -0.0002259            0.1036301            0.9946159
  Z           0.9999996            0.0008312            0.0001406

Notes:  (1) The A matrix conforms to the "SAI" spin Hamiltonian convention.
        (2) Tensor is right-handed.

 Raw EFG matrix (all values in a.u.**-3):
 -----------------------------------
            -0.1311       0.0569       0.0000
             0.0569       0.2925       0.0000
             0.0000       0.0000      -0.1614

 V(El)       0.5963       0.8560      -1.4523
 V(Nuc)     -0.7349      -1.0173       1.7523
         ----------   ----------   ----------
 V(Tot)     -0.1386      -0.1614       0.3000 
 Orientation: 
  X      -0.9914136   -0.0000000    0.1307635
  Y       0.1307635    0.0000000    0.9914136
  Z      -0.0000000    1.0000000    0.0000000

Note: Tensor is right-handed


 Quadrupole tensor eigenvalues (in MHz;Q= 0.0029 I=  1.0)
  e**2qQ            =     0.201428 MHz 
  e**2qQ/(4I*(2I-1))=     0.050357 MHz 
  eta               =     0.075950
  NOTE: the diagonal representation of the SH term I*Q*I = e**2qQ/(4I(2I-1))*[-(1-eta),-(1+eta),2]

 RHO(0)=      0.475047810 a.u.**-3

 -----------------------------------------------------------
 Nucleus  20H : A:ISTP=    1 I=  0.5 P=533.5514 MHz/au**3
                Q:ISTP=    2 I=  1.0 Q=  0.0029 barn     
 -----------------------------------------------------------
 Solving for nuclear perturbation:
Forming RHS of the CP-SCF equations         ... 
Calc. nucleus orbit integrals (SHARK)       ... done

Forming final perturbed densities           ... done
Transforming perturbed density to AO basis  ... done

 Raw HFC matrix (all values in MHz): 
 -----------------------------------
                11.4770               0.2925               0.0001
                 0.3028              14.0755              -0.0003
                 0.0008               0.0008              11.3311

 A(FC)          12.3016              12.3016              12.3016
 A(SD)          -0.9516              -0.8499               1.8016
 A(ORB+DIA)     -0.0189              -0.0083               0.0060    A(PC) =  -0.0071
 A(ORB)         -0.0186              -0.0079               0.0057    A(PC) =  -0.0069
 A(DIA)         -0.0003              -0.0004               0.0003    A(PC) =  -0.0001
             ----------           ----------           ----------
 A(Tot)         11.3311              11.4433              14.1092    A(iso)=   12.2945
 Orientation: 
  X          -0.0010029           -0.9938768           -0.1104896
  Y           0.0002225            0.1104894           -0.9938773
  Z           0.9999995           -0.0010213            0.0001103

Notes:  (1) The A matrix conforms to the "SAI" spin Hamiltonian convention.
        (2) Tensor is right-handed.

 Raw EFG matrix (all values in a.u.**-3):
 -----------------------------------
             0.0952       0.1318       0.0000
             0.1318       0.0031      -0.0000
             0.0000      -0.0000      -0.0982

 V(El)       0.3603       0.8464      -1.2067
 V(Nuc)     -0.4508      -0.9446       1.3954
         ----------   ----------   ----------
 V(Tot)     -0.0905      -0.0982       0.1887 
 Orientation: 
  X      -0.5788774   -0.0000000    0.8154146
  Y       0.8154146    0.0000000    0.5788774
  Z      -0.0000000    1.0000000    0.0000000

Note: Tensor is right-handed


 Quadrupole tensor eigenvalues (in MHz;Q= 0.0029 I=  1.0)
  e**2qQ            =     0.126731 MHz 
  e**2qQ/(4I*(2I-1))=     0.031683 MHz 
  eta               =     0.040785
  NOTE: the diagonal representation of the SH term I*Q*I = e**2qQ/(4I(2I-1))*[-(1-eta),-(1+eta),2]

 RHO(0)=      0.420625934 a.u.**-3

 -----------------------------------------------------------
 Nucleus  22H : A:ISTP=    1 I=  0.5 P=533.5514 MHz/au**3
                Q:ISTP=    2 I=  1.0 Q=  0.0029 barn     
 -----------------------------------------------------------
 Solving for nuclear perturbation:
Forming RHS of the CP-SCF equations         ... 
Calc. nucleus orbit integrals (SHARK)       ... done

Forming final perturbed densities           ... done
Transforming perturbed density to AO basis  ... done

 Raw HFC matrix (all values in MHz): 
 -----------------------------------
                -0.8896              -0.9919               0.0010
                -0.9913               0.4332              -0.0005
                 0.0005               0.0004              -3.0048

 A(FC)          -1.1403              -1.1403              -1.1403
 A(SD)           2.1061              -0.2720              -1.8341
 A(ORB+DIA)     -0.0021              -0.0078              -0.0304    A(PC) =  -0.0134
 A(ORB)         -0.0024              -0.0074              -0.0301    A(PC) =  -0.0133
 A(DIA)          0.0003              -0.0004              -0.0004    A(PC) =  -0.0001
             ----------           ----------           ----------
 A(Tot)          0.9638              -1.4201              -3.0048    A(iso)=   -1.1537
 Orientation: 
  X          -0.4718094           -0.8817004           -0.0004645
  Y           0.8817005           -0.4718095            0.0000098
  Z          -0.0002278           -0.0004049            0.9999999

Notes:  (1) The A matrix conforms to the "SAI" spin Hamiltonian convention.
        (2) Tensor is right-handed.

 Raw EFG matrix (all values in a.u.**-3):
 -----------------------------------
             0.1026       0.1340      -0.0000
             0.1340       0.0008      -0.0000
            -0.0000      -0.0000      -0.1033

 V(El)       0.0738       0.9559      -1.0297
 V(Nuc)     -0.1654      -1.0592       1.2247
         ----------   ----------   ----------
 V(Tot)     -0.0917      -0.1033       0.1950 
 Orientation: 
  X       0.5678846   -0.0000000   -0.8231082
  Y      -0.8231082    0.0000000   -0.5678846
  Z       0.0000000    1.0000000    0.0000000

Note: Tensor is right-handed


 Quadrupole tensor eigenvalues (in MHz;Q= 0.0029 I=  1.0)
  e**2qQ            =     0.130945 MHz 
  e**2qQ/(4I*(2I-1))=     0.032736 MHz 
  eta               =     0.059711
  NOTE: the diagonal representation of the SH term I*Q*I = e**2qQ/(4I(2I-1))*[-(1-eta),-(1+eta),2]

 RHO(0)=      0.422995255 a.u.**-3

 -----------------------------------------------------------
 Nucleus  23H : A:ISTP=    1 I=  0.5 P=533.5514 MHz/au**3
                Q:ISTP=    2 I=  1.0 Q=  0.0029 barn     
 -----------------------------------------------------------
 Solving for nuclear perturbation:
Forming RHS of the CP-SCF equations         ... 
Calc. nucleus orbit integrals (SHARK)       ... done

Forming final perturbed densities           ... done
Transforming perturbed density to AO basis  ... done

 Raw HFC matrix (all values in MHz): 
 -----------------------------------
                -0.0834              -0.0004              -0.0001
                 0.0387               1.2479              -0.0001
                 0.0015               0.0016              -0.9252

 A(FC)           0.0696               0.0696               0.0696
 A(SD)          -0.1521              -0.9889               1.1410
 A(ORB+DIA)     -0.0010              -0.0059               0.0373    A(PC) =   0.0102
 A(ORB)         -0.0008              -0.0058               0.0371    A(PC) =   0.0102
 A(DIA)         -0.0002              -0.0001               0.0002    A(PC) =  -0.0000
             ----------           ----------           ----------
 A(Tot)         -0.0834              -0.9252               1.2479    A(iso)=    0.0798
 Orientation: 
  X          -0.9999999            0.0000708           -0.0003135
  Y          -0.0003135            0.0000375            1.0000000
  Z           0.0000708            1.0000000           -0.0000374

Notes:  (1) The A matrix conforms to the "SAI" spin Hamiltonian convention.
        (2) Tensor is right-handed.

 Raw EFG matrix (all values in a.u.**-3):
 -----------------------------------
            -0.0129       0.1461      -0.0000
             0.1461       0.1476      -0.0000
            -0.0000      -0.0000      -0.1347

 V(El)       0.4999       0.7385      -1.2384
 V(Nuc)     -0.5992      -0.8732       1.4724
         ----------   ----------   ----------
 V(Tot)     -0.0993      -0.1347       0.2340 
 Orientation: 
  X      -0.8606588    0.0000000    0.5091821
  Y       0.5091821   -0.0000000    0.8606588
  Z       0.0000000    1.0000000   -0.0000000

Note: Tensor is right-handed


 Quadrupole tensor eigenvalues (in MHz;Q= 0.0029 I=  1.0)
  e**2qQ            =     0.157130 MHz 
  e**2qQ/(4I*(2I-1))=     0.039283 MHz 
  eta               =     0.150940
  NOTE: the diagonal representation of the SH term I*Q*I = e**2qQ/(4I(2I-1))*[-(1-eta),-(1+eta),2]

 RHO(0)=      0.423308045 a.u.**-3

 -----------------------------------------------------------
 Nucleus  24H : A:ISTP=    1 I=  0.5 P=533.5514 MHz/au**3
                Q:ISTP=    2 I=  1.0 Q=  0.0029 barn     
 -----------------------------------------------------------
 Solving for nuclear perturbation:
Forming RHS of the CP-SCF equations         ... 
Calc. nucleus orbit integrals (SHARK)       ... done

Forming final perturbed densities           ... done
Transforming perturbed density to AO basis  ... done

 Raw HFC matrix (all values in MHz): 
 -----------------------------------
                 4.5622              -0.3645              -0.0002
                -0.3627               4.9876              -0.0002
                 0.0002               0.0001               4.0888

 A(FC)           4.5517               4.5517               4.5517
 A(SD)          -0.4486              -0.1985               0.6471
 A(ORB+DIA)     -0.0143               0.0005              -0.0026    A(PC) =  -0.0055
 A(ORB)         -0.0142               0.0006              -0.0028    A(PC) =  -0.0055
 A(DIA)         -0.0001              -0.0001               0.0002    A(PC) =  -0.0000
             ----------           ----------           ----------
 A(Tot)          4.0888               4.3537               5.1962    A(iso)=    4.5462
 Orientation: 
  X           0.0007750            0.8672010           -0.4979576
  Y           0.0005696            0.4979573            0.8672014
  Z           0.9999995           -0.0009557           -0.0001080

Notes:  (1) The A matrix conforms to the "SAI" spin Hamiltonian convention.
        (2) Tensor is right-handed.

 Raw EFG matrix (all values in a.u.**-3):
 -----------------------------------
            -0.0129      -0.1667       0.0000
            -0.1667       0.1456      -0.0000
             0.0000      -0.0000      -0.1326

 V(El)       0.5303       0.8825      -1.4128
 V(Nuc)     -0.6485      -1.0151       1.6636
         ----------   ----------   ----------
 V(Tot)     -0.1182      -0.1326       0.2508 
 Orientation: 
  X      -0.8454232    0.0000000   -0.5340969
  Y      -0.5340969    0.0000000    0.8454232
  Z       0.0000000    1.0000000   -0.0000000

Note: Tensor is right-handed


 Quadrupole tensor eigenvalues (in MHz;Q= 0.0029 I=  1.0)
  e**2qQ            =     0.168443 MHz 
  e**2qQ/(4I*(2I-1))=     0.042111 MHz 
  eta               =     0.057347
  NOTE: the diagonal representation of the SH term I*Q*I = e**2qQ/(4I(2I-1))*[-(1-eta),-(1+eta),2]

 RHO(0)=      0.455520181 a.u.**-3

 -----------------------------------------------------------
 Nucleus   0Cu: A:ISTP=   63 I=  1.5 P=141.6005 MHz/au**3
                Q:ISTP=   63 I=  1.5 Q= -0.2200 barn     
 -----------------------------------------------------------
 Solving for nuclear perturbation:
Forming RHS of the CP-SCF equations         ... 
Calc. nucleus orbit integrals (SHARK)       ... done

Forming final perturbed densities           ... done
Transforming perturbed density to AO basis  ... done

 Raw HFC matrix (all values in MHz): 
 -----------------------------------
               169.0607               4.0107              -0.1052
                 2.7450             174.4222               0.3993
                 1.5481               0.3126            -233.6871

 A(FC)         -10.1973             -10.1973             -10.1973
 A(SD)         152.3995             161.0668            -313.4663
 A(ORB+DIA)     25.2404              25.1707              89.9767    A(PC) =  46.7959
 A(ORB)         25.2406              25.1709              89.9780    A(PC) =  46.7965
 A(DIA)         -0.0002              -0.0002              -0.0013    A(PC) =  -0.0006
             ----------           ----------           ----------
 A(Tot)        167.4426             176.0402            -233.6870    A(iso)=   36.5986
 Orientation: 
  X          -0.8819738            0.4712983           -0.0002713
  Y           0.4712979            0.8819736            0.0009754
  Z           0.0006990            0.0007325           -0.9999995

Notes:  (1) The A matrix conforms to the "SAI" spin Hamiltonian convention.
        (2) Tensor is right-handed.

 Raw EFG matrix (all values in a.u.**-3):
 -----------------------------------
             1.1521       0.0722       0.0000
             0.0722       0.7033      -0.0000
             0.0000      -0.0000      -1.8554

 V(El)      -0.0218       0.9463      -0.9246
 V(Nuc)      0.7138       0.2170      -0.9308
         ----------   ----------   ----------
 V(Tot)      0.6920       1.1634      -1.8554 
 Orientation: 
  X      -0.1549727    0.9879188    0.0000000
  Y       0.9879188    0.1549727   -0.0000000
  Z      -0.0000000    0.0000000   -1.0000000

Note: Tensor is right-handed


 Quadrupole tensor eigenvalues (in MHz;Q=-0.2200 I=  1.5)
  e**2qQ            =    95.908762 MHz 
  e**2qQ/(4I*(2I-1))=     7.992397 MHz 
  eta               =     0.254082
  NOTE: the diagonal representation of the SH term I*Q*I = e**2qQ/(4I(2I-1))*[-(1-eta),-(1+eta),2]

 RHO(0)=  37601.731026750 a.u.**-3


--------------------------------------------------------------------------------
----------------------------------------------------------------------------
                           ORCA EULER ANGLE PROGRAM
----------------------------------------------------------------------------

Only g-tensor available        -->  using g-tensor as reference tensor

Reference tensor               ...  g

g-tensor ordering              ...  |g_min> --> |gx>
                                    |g_mid> --> |gy>
                                    |g_max> --> |gz>

A- and EFG-tensor ordering     ...  the axes |Ax>, |Qx>, |Ay>, etc. are assigned
                                    such that the Euler rotation is minimal. You
                                    can find the respective eigenvalues as Ax,
                                    EFGx, Ay, etc. in the tables below.
                                    The relation of |Ax>, |Ay>,  etc. to Amin, Amid, etc.
                                    (as printed in the ORCA EPR/NMR CALCULATION Output)
                                    is obtained in the detailed printout.

Euler rotation around          ...  z - y - z
   First rotation              -->  by alpha around z
   Second rotation             -->  by beta around y'
   Third rotation              -->  by gamma around z''
   Positive / Negative angle   -->  clockwise / counterclockwise rotation

Plot EFG-tensors                    (-)
Plot HFC-tensors                    (-)
Detailed Printout                   (-)

-------------------------------------------------------------------------
          Euler rotation of hyperfine tensor to g-tensor
-------------------------------------------------------------------------

-------------------------------------------------------------------
 Atom  |   Alpha    Beta    Gamma   |   Ax       Ay       Az 
       |          [degrees]         |           [MHz]         
-------------------------------------------------------------------
 12H      137.6      0.7   -172.9       3.52     6.42     3.15
 14H     -177.6      0.7   -168.7       1.68    -0.89    -1.77
 15H     -151.9      0.7   -170.0       1.54     0.60     0.28
 16H     -166.2      0.7   -170.2       1.84     1.03     0.90
 20H     -177.3      0.7   -171.4      14.11    11.44    11.33
 22H      124.5      0.7   -168.7      -1.42     0.96    -3.00
 23H     -176.3      0.7   -166.1       1.25    -0.08    -0.93
 24H      120.2      0.6   -162.6       4.35     5.20     4.09
  0Cu     154.4      0.7   -164.9     176.04   167.44  -233.69
-------------------------------------------------------------------


-------------------------------------------------------------------------------
    Euler rotation of Electric Field Gradient (EFG) tensor to g-tensor
-------------------------------------------------------------------------------

-------------------------------------------------------------------
 Atom  |   Alpha    Beta    Gamma  |   EFGx     EFGy     EFGz
       |          [degrees]        |         [a.u.**-3]       
-------------------------------------------------------------------
 12H     -169.1      0.7   -166.4     -0.13     0.28    -0.15
 14H     -168.4      0.7   -166.4     -0.14     0.29    -0.16
 15H      146.1      0.7   -166.4     -0.14     0.31    -0.17
 16H      176.6      0.7   -166.4      0.30    -0.14    -0.16
 20H      129.4      0.7   -166.4      0.19    -0.09    -0.10
 22H      128.7      0.7   -166.4      0.20    -0.09    -0.10
 23H      153.5      0.7   -166.4      0.23    -0.10    -0.13
 24H      126.3      0.7   -166.4     -0.12     0.25    -0.13
  0Cu    -167.0      0.7   -166.4      0.69     1.16    -1.86
-------------------------------------------------------------------


Maximum memory used throughout the entire EPRNMR-calculation: 587.3 MB

Timings for individual modules:

Sum of individual times         ...    17570.301 sec (= 292.838 min)
GTO integral calculation        ...       15.915 sec (=   0.265 min)   0.1 %
Spin-Orbit-Coupling Matrices    ...      226.236 sec (=   3.771 min)   1.3 %
SCF iterations                  ...      615.236 sec (=  10.254 min)   3.5 %
EPR/NMR calculation             ...    16712.915 sec (= 278.549 min)  95.1 %
                             ****ORCA TERMINATED NORMALLY****
TOTAL RUN TIME: 0 days 4 hours 54 minutes 24 seconds 63 msec
