
                                 *****************
                                 * O   R   C   A *
                                 *****************

                                            #,                                       
                                            ###                                      
                                            ####                                     
                                            #####                                    
                                            ######                                   
                                           ########,                                 
                                     ,,################,,,,,                         
                               ,,#################################,,                 
                          ,,##########################################,,             
                       ,#########################################, ''#####,          
                    ,#############################################,,   '####,        
                  ,##################################################,,,,####,       
                ,###########''''           ''''###############################       
              ,#####''   ,,,,##########,,,,          '''####'''          '####       
            ,##' ,,,,###########################,,,                        '##       
           ' ,,###''''                  '''############,,,                           
         ,,##''                                '''############,,,,        ,,,,,,###''
      ,#''                                            '''#######################'''  
     '                                                          ''''####''''         
             ,#######,   #######,   ,#######,      ##                                
            ,#'     '#,  ##    ##  ,#'     '#,    #''#        ######   ,####,        
            ##       ##  ##   ,#'  ##            #'  '#       #        #'  '#        
            ##       ##  #######   ##           ,######,      #####,   #    #        
            '#,     ,#'  ##    ##  '#,     ,#' ,#      #,         ##   #,  ,#        
             '#######'   ##     ##  '#######'  #'      '#     #####' # '####'        



                  #######################################################
                  #                        -***-                        #
                  #          Department of theory and spectroscopy      #
                  #    Directorship and core code : Frank Neese         #
                  #        Max Planck Institute fuer Kohlenforschung    #
                  #                Kaiser Wilhelm Platz 1               #
                  #                 D-45470 Muelheim/Ruhr               #
                  #                      Germany                        #
                  #                                                     #
                  #                  All rights reserved                #
                  #                        -***-                        #
                  #######################################################


                         Program Version 5.0.4 -  RELEASE  -


 With contributions from (in alphabetic order):
   Daniel Aravena         : Magnetic Suceptibility
   Michael Atanasov       : Ab Initio Ligand Field Theory (pilot matlab implementation)
   Alexander A. Auer      : GIAO ZORA, VPT2 properties, NMR spectrum
   Ute Becker             : Parallelization
   Giovanni Bistoni       : ED, misc. LED, open-shell LED, HFLD
   Martin Brehm           : Molecular dynamics
   Dmytro Bykov           : SCF Hessian
   Vijay G. Chilkuri      : MRCI spin determinant printing, contributions to CSF-ICE
   Dipayan Datta          : RHF DLPNO-CCSD density
   Achintya Kumar Dutta   : EOM-CC, STEOM-CC
   Dmitry Ganyushin       : Spin-Orbit,Spin-Spin,Magnetic field MRCI
   Miquel Garcia          : C-PCM and meta-GGA Hessian, CC/C-PCM, Gaussian charge scheme
   Yang Guo               : DLPNO-NEVPT2, F12-NEVPT2, CIM, IAO-localization
   Andreas Hansen         : Spin unrestricted coupled pair/coupled cluster methods
   Benjamin Helmich-Paris : MC-RPA, TRAH-SCF, COSX integrals
   Lee Huntington         : MR-EOM, pCC
   Robert Izsak           : Overlap fitted RIJCOSX, COSX-SCS-MP3, EOM
   Marcus Kettner         : VPT2
   Christian Kollmar      : KDIIS, OOCD, Brueckner-CCSD(T), CCSD density, CASPT2, CASPT2-K
   Simone Kossmann        : Meta GGA functionals, TD-DFT gradient, OOMP2, MP2 Hessian
   Martin Krupicka        : Initial AUTO-CI
   Lucas Lang             : DCDCAS
   Marvin Lechner         : AUTO-CI (C++ implementation), FIC-MRCC
   Dagmar Lenk            : GEPOL surface, SMD
   Dimitrios Liakos       : Extrapolation schemes; Compound Job, initial MDCI parallelization
   Dimitrios Manganas     : Further ROCIS development; embedding schemes
   Dimitrios Pantazis     : SARC Basis sets
   Anastasios Papadopoulos: AUTO-CI, single reference methods and gradients
   Taras Petrenko         : DFT Hessian,TD-DFT gradient, ASA, ECA, R-Raman, ABS, FL, XAS/XES, NRVS
   Peter Pinski           : DLPNO-MP2, DLPNO-MP2 Gradient
   Christoph Reimann      : Effective Core Potentials
   Marius Retegan         : Local ZFS, SOC
   Christoph Riplinger    : Optimizer, TS searches, QM/MM, DLPNO-CCSD(T), (RO)-DLPNO pert. Triples
   Tobias Risthaus        : Range-separated hybrids, TD-DFT gradient, RPA, STAB
   Michael Roemelt        : Original ROCIS implementation
   Masaaki Saitow         : Open-shell DLPNO-CCSD energy and density
   Barbara Sandhoefer     : DKH picture change effects
   Avijit Sen             : IP-ROCIS
   Kantharuban Sivalingam : CASSCF convergence, NEVPT2, FIC-MRCI
   Bernardo de Souza      : ESD, SOC TD-DFT
   Georgi Stoychev        : AutoAux, RI-MP2 NMR, DLPNO-MP2 response
   Willem Van den Heuvel  : Paramagnetic NMR
   Boris Wezisla          : Elementary symmetry handling
   Frank Wennmohs         : Technical directorship


 We gratefully acknowledge several colleagues who have allowed us to
 interface, adapt or use parts of their codes:
   Stefan Grimme, W. Hujo, H. Kruse, P. Pracht,  : VdW corrections, initial TS optimization,
                  C. Bannwarth, S. Ehlert          DFT functionals, gCP, sTDA/sTD-DF
   Ed Valeev, F. Pavosevic, A. Kumar             : LibInt (2-el integral package), F12 methods
   Garnet Chan, S. Sharma, J. Yang, R. Olivares  : DMRG
   Ulf Ekstrom                                   : XCFun DFT Library
   Mihaly Kallay                                 : mrcc  (arbitrary order and MRCC methods)
   Jiri Pittner, Ondrej Demel                    : Mk-CCSD
   Frank Weinhold                                : gennbo (NPA and NBO analysis)
   Christopher J. Cramer and Donald G. Truhlar   : smd solvation model
   Lars Goerigk                                  : TD-DFT with DH, B97 family of functionals
   V. Asgeirsson, H. Jonsson                     : NEB implementation
   FAccTs GmbH                                   : IRC, NEB, NEB-TS, DLPNO-Multilevel, CI-OPT
                                                   MM, QMMM, 2- and 3-layer-ONIOM, Crystal-QMMM,
                                                   LR-CPCM, SF, NACMEs, symmetry and pop. for TD-DFT,
                                                   nearIR, NL-DFT gradient (VV10), updates on ESD,
                                                   ML-optimized integration grids
   S Lehtola, MJT Oliveira, MAL Marques          : LibXC Library
   Liviu Ungur et al                             : ANISO software


 Your calculation uses the libint2 library for the computation of 2-el integrals
 For citations please refer to: http://libint.valeyev.net

 Your ORCA version has been built with support for libXC version: 5.1.0
 For citations please refer to: https://tddft.org/programs/libxc/

 This ORCA versions uses:
   CBLAS   interface :  Fast vector & matrix operations
   LAPACKE interface :  Fast linear algebra routines
   SCALAPACK package :  Parallel linear algebra routines
   Shared memory     :  Shared parallel matrices
   BLAS/LAPACK       :  OpenBLAS 0.3.15  USE64BITINT DYNAMIC_ARCH NO_AFFINITY Prescott SINGLE_THREADED
        Core in use  :  Prescott
   Copyright (c) 2011-2014, The OpenBLAS Project


XCFun DFT library Copyright 2009-2010 Ulf Ekstrom and contributors.
See http://admol.org/xcfun for more information.
This is free software; see the source code for copying conditions.
There is ABSOLUTELY NO WARRANTY; not even for MERCHANTABILITY or FITNESS FOR A PARTICULAR PURPOSE.
For details see the documentation.
Scientific users of this library should cite U. Ekstrom, L. Visscher, R. Bast, A. J. Thorvaldsen and K. Ruud;
J.Chem.Theor.Comp. 2010, DOI: 10.1021/ct100117s
XCFun Version 0.99 

================================================================================

----- Orbital basis set information -----
Your calculation utilizes the basis: ANO-RCC-DZP
   H, He:       P.-O. Widmark, P.-A. Malmqvist, and B. O. Roos, Theor. Chim. Acta 77, 291 (1990).
   s block:     B. O. Roos, V. Veryazov and P.-O. Widmark, Theor. Chem. Acc. 111, 345 (2004).
   p block:     B. O. Roos, R. Lindh, P.-A. Malmqvist, V. Veryazov, and P.-O. Widmark, J. Phys. Chem. A 108, 2851 (2004).
   d block:     B. O. Roos, R. Lindh, P.-A. Malmqvist, V. Veryazov, and P.-O. Widmark, J. Phys. Chem. A 109, 6575 (2005).
   actinides:   B. O. Roos, R. Lindh, P.-A. Malmqvist, V. Veryazov, and P.-O. Widmark, Chem. Phys. Letters 409, 295 (2005).
   lanthanides: B. O. Roos, R. Lindh, P.-A. Malmqvist, V. Veryazov, P.-O. Widmark and A. C. Borin, J. Phys. Chem. A 112, 11431 (2008).

The basis set includes element-specific modifications.

Your calculation utilizes the basis: ANO-RCC-TZP
   H, He:       P.-O. Widmark, P.-A. Malmqvist, and B. O. Roos, Theor. Chim. Acta 77, 291 (1990).
   s block:     B. O. Roos, V. Veryazov and P.-O. Widmark, Theor. Chem. Acc. 111, 345 (2004).
   p block:     B. O. Roos, R. Lindh, P.-A. Malmqvist, V. Veryazov, and P.-O. Widmark, J. Phys. Chem. A 108, 2851 (2004).
   d block:     B. O. Roos, R. Lindh, P.-A. Malmqvist, V. Veryazov, and P.-O. Widmark, J. Phys. Chem. A 109, 6575 (2005).
   actinides:   B. O. Roos, R. Lindh, P.-A. Malmqvist, V. Veryazov, and P.-O. Widmark, Chem. Phys. Letters 409, 295 (2005).
   lanthanides: B. O. Roos, R. Lindh, P.-A. Malmqvist, V. Veryazov, P.-O. Widmark and A. C. Borin, J. Phys. Chem. A 112, 11431 (2008).

----- AuxJ basis set information -----
Your calculation utilizes the AutoAux generation procedure.
  G. L. Stoychev, A. A. Auer, F. Neese, J. Chem. Theory Comput. 13, 554 (2017)

----- AuxC basis set information -----
Your calculation utilizes the AutoAux generation procedure.
  G. L. Stoychev, A. A. Auer, F. Neese, J. Chem. Theory Comput. 13, 554 (2017)

----- AuxJK basis set information -----
Your calculation utilizes the AutoAux generation procedure.
  G. L. Stoychev, A. A. Auer, F. Neese, J. Chem. Theory Comput. 13, 554 (2017)

================================================================================
                                        WARNINGS
                       Please study these warnings very carefully!
================================================================================


Removing linear dependencies from the Orbital basis set:
  S-ok PCD(Thresh=Auto)-ok done ( 0.883 sec)
  Dim=475 Nullspace=0 Removed 0 shells / 0 basis functions

Removing linear dependencies from the AuxJ basis set:
  V-ok PCD(Thresh=Auto)-ok done (28.399 sec)
  Dim=3632 Nullspace=0 Removed 0 shells / 0 basis functions

Removing linear dependencies from the AuxC basis set:
  V-ok PCD(Thresh=Auto)-ok done (28.368 sec)
  Dim=3632 Nullspace=0 Removed 0 shells / 0 basis functions

Removing linear dependencies from the AuxJK basis set:
  V-ok PCD(Thresh=Auto)-ok done (28.381 sec)
  Dim=3632 Nullspace=0 Removed 0 shells / 0 basis functions


WARNING: Found flag for RIJCOSX approximation but no HF exchange needed!
  ===> : RIJCOSX  will be disabled and Split-RI-J is turned on

WARNING: your system is open-shell and RHF/RKS was chosen
  ===> : WILL SWITCH to UHF/UKS


WARNING: Minnesota functionals are quite sensitive to the integration grid.
         see SE Wheeler, KN Houk, JCTC 2010, 6, 395,
             N Mardirossian, M Head-Gordon, JCTC 2016, 12, 4303.
         DEFGRID3 seems to be a minimum grid for reliable results with these functionals!
  ===> : Please increase the integration grid!


INFO   : the flag for use of the SHARK integral package has been found!

================================================================================
                                       INPUT FILE
================================================================================
NAME = input_3.inp
|  1> ! RIJCOSX nofrozencore ReducedPop printbasis
|  2> ! M06L ano-rcc-dzp autoaux
|  3> 
|  4> %maxcore 5000
|  5> %basis
|  6> PCDTrimBas overlap
|  7> PCDTrimAuxJ Coulomb
|  8> PCDTrimAuxJK Coulomb
|  9> PCDTrimAuxC Coulomb
| 10> PCDThresh -1
| 11> end
| 12> 
| 13> %basis
| 14> newgto Cu "ano-rcc-tzp" end
| 15> newgto S "ano-rcc-tzp" end
| 16> end
| 17> 
| 18> %pal
| 19> nprocs 12
| 20> end
| 21> 
| 22> % sym SymThresh 1e-2 end
| 23> * xyz -2 2 
| 24> Cu -2.0263531859771703e-06 -9.414035229629009e-07 -8.747669765835454e-08
| 25> S 1.4614475371157052 -1.6753910968334735 -0.6711477872939542
| 26> C 1.2306177570975643 -1.7834740077812887 -2.3973069902077015
| 27> S 0.8547573984381077 -0.01616829901992518 2.159243788931699
| 28> C -0.21021540061624522 1.0382662871083883 3.0528828073248917
| 29> S -0.8547615024286221 0.0161623013173231 -2.159244218844893
| 30> C 0.21021736490467707 -1.038264089740942 -3.0528833669205158
| 31> S -1.4614434951899449 1.6753983504999987 0.6711475701348263
| 32> C -1.2306171023347539 1.783474740237104 2.3973068036758267
| 33> C -2.05609343218806 2.610996073113705 3.17602953411141
| 34> C -0.08042776022328516 1.1681652821289015 4.445322543942922
| 35> C -0.911218072459471 1.9938169005534876 5.196908457835248
| 36> H 0.6973360837510671 0.5925781411282006 4.936807937033987
| 37> C -1.9096481062971278 2.7229755387762853 4.555450420648082
| 38> H -2.8341292588125264 3.17162424678947 2.6679632390240853
| 39> H -0.7812944736547652 2.0614090528444255 6.275166026559582
| 40> H -2.574447846990586 3.3709509976496954 5.123129518549093
| 41> C 2.0560900428289357 -2.6110018120646816 -3.1760264394892337
| 42> C 0.08043515100463931 -1.1681617752664353 -4.445325718571502
| 43> C 1.9096495399522573 -2.722976585792501 -4.555449499567188
| 44> H 2.8341236654903903 -3.171631747851946 -2.6679587169881267
| 45> C 0.9112221251658429 -1.9938150177464415 -5.196908282881853
| 46> H -0.6973280382069024 -0.5925739018099188 -4.936811298194441
| 47> H 2.5744460688964166 -3.3709569629089113 -5.123127017736503
| 48> H 0.7813016868262939 -2.0614063666899356 -6.2751676862976815
| 49> * 
| 50> 
| 51> % eprnmr
| 52> gtensor true
| 53> Nuclei = all H {aiso,adip,aorb,fgrad,rho}
| 54> Nuclei = all Cu {aiso,adip,aorb,fgrad,rho}
| 55> end
| 56> 
| 57>                          ****END OF INPUT****
================================================================================

------------------------------------------------------------------------------
                            SYMMETRY HANDLING SETUP
------------------------------------------------------------------------------

------------------
SYMMETRY DETECTION
------------------
The point group will now be determined using a tolerance of 1.0000e-02.
Splitting atom subsets according to nuclear charge, mass and basis set.
Splitting atom subsets according to distance from the molecule's center.
Identifying relative distance patterns of the atoms.
Splitting atom subsets according to atoms' relative distance patterns.
Bring atoms of each subset into input order.
The molecule is neither linear nor planar.
The molecule has a center of inversion.
Analyzing the first atom subset for its symmetry.
The atoms in the selected subset form a 4-gon with alternating side lengths.
Testing point group D2h.
Test failed.
Testing point group C2h.
Test failed.
Testing point group C2h.
Success!
This point group has been found:    C2h
Largest non-degenerate subgroup:    C2h


Symmetry-perfected Cartesians (point group C2h):

Atom          Symmetry-perfected Cartesians (x, y, z; au)
  0       0.000000000000    0.000000000000    0.000000000000
  1      -1.402419214243   -2.823419348408    3.053035400335
  2      -2.269500732066   -5.507302792508    1.345006906641
  3       1.402419214243    2.823419348408    3.053035400335
  4       2.269500732066    5.507302792508    1.345006906641
  5      -1.402419214243   -2.823419348408   -3.053035400335
  6      -2.269500732066   -5.507302792508   -1.345006906641
  7       1.402419214243    2.823419348408   -3.053035400335
  8       2.269500732066    5.507302792508   -1.345006906641
  9       2.981157637576    7.732710947877   -2.604142768046
 10       2.981157637576    7.732710947877    2.604142768046
 11       3.677244104432    9.917354041181    1.316043074191
 12       2.966893615224    7.717160134485    4.654866009672
 13       3.677244104432    9.917354041181   -1.316043074191
 14       2.966893615224    7.717160134485   -4.654866009672
 15       4.204916843354   11.606349945737    2.363572127429
 16       4.204916843354   11.606349945737   -2.363572127429
 17      -2.981157637576   -7.732710947877    2.604142768046
 18      -2.981157637576   -7.732710947877   -2.604142768046
 19      -3.677244104432   -9.917354041181    1.316043074191
 20      -2.966893615224   -7.717160134485    4.654866009672
 21      -3.677244104432   -9.917354041181   -1.316043074191
 22      -2.966893615224   -7.717160134485   -4.654866009672
 23      -4.204916843354  -11.606349945737    2.363572127429
 24      -4.204916843354  -11.606349945737   -2.363572127429


-----------------------------------------------
SYMMETRY-PERFECTED CARTESIAN COORDINATES (A.U.)
-----------------------------------------------
Warning (ORCA_SYM): Coordinates were not cleaned so far!

------------------
SYMMETRY REDUCTION
------------------
ORCA supports only abelian point groups.
It is now checked, if the determined point group is supported:
Point Group ( C2h   ) is          ... supported

(Re)building abelian point group:
Creating Character Table          ... done
Making direct product table       ... done
Constructing symmetry operations  ... done
Creating atom transfer table      ... done
Creating asymmetric unit          ... done

----------------------
ASYMMETRIC UNIT IN C2h
----------------------
  #  AT     MASS              COORDS (A.U.)             BAS
   0 Cu  63.5500   0.00000000   0.00000000   0.00000000   0
   1 S   32.0600  -1.40241921  -2.82341935   3.05303540   0
   2 C   12.0110  -2.26950073  -5.50730279   1.34500691   0
   9 C   12.0110   2.98115764   7.73271095  -2.60414277   0
  11 C   12.0110   3.67724410   9.91735404   1.31604307   0
  12 H    1.0080   2.96689362   7.71716013   4.65486601   0
  15 H    1.0080   4.20491684  11.60634995   2.36357213   0

----------------------
SYMMETRY ADAPTED BASIS
----------------------
The coefficients for the symmetry adapted linear combinations (SALCS)
of basis functions will now be computed:
Number of basis functions         ...   475
Preparing memory                  ... done
Constructing Gamma(red)           ... done
Reducing Gamma(red)               ... done
Constructing SALCs                ... done
Checking SALC integrity           ... nothing suspicious
Normalizing SALCs                 ... done

Storing the symmetry object:
Symmetry file                     ... input_3.sym.tmp
Writing symmetry information      ... done

                       ****************************
                       * Single Point Calculation *
                       ****************************

---------------------------------
CARTESIAN COORDINATES (ANGSTROEM)
---------------------------------
  Cu     0.000000    0.000000    0.000000
  S     -0.742128   -1.494089    1.615597
  C     -1.200968   -2.914339    0.711747
  S      0.742128    1.494089    1.615597
  C      1.200968    2.914339    0.711747
  S     -0.742128   -1.494089   -1.615597
  C     -1.200968   -2.914339   -0.711747
  S      0.742128    1.494089   -1.615597
  C      1.200968    2.914339   -0.711747
  C      1.577561    4.091974   -1.378053
  C      1.577561    4.091974    1.378053
  C      1.945914    5.248038    0.696420
  H      1.570012    4.083745    2.463249
  C      1.945914    5.248038   -0.696420
  H      1.570012    4.083745   -2.463249
  H      2.225146    6.141816    1.250749
  H      2.225146    6.141816   -1.250749
  C     -1.577561   -4.091974    1.378053
  C     -1.577561   -4.091974   -1.378053
  C     -1.945914   -5.248038    0.696420
  H     -1.570012   -4.083745    2.463249
  C     -1.945914   -5.248038   -0.696420
  H     -1.570012   -4.083745   -2.463249
  H     -2.225146   -6.141816    1.250749
  H     -2.225146   -6.141816   -1.250749

----------------------------
CARTESIAN COORDINATES (A.U.)
----------------------------
  NO LB      ZA    FRAG     MASS         X           Y           Z
   0 Cu   29.0000    0    63.550    0.000000    0.000000    0.000000
   1 S    16.0000    0    32.060   -1.402419   -2.823419    3.053035
   2 C     6.0000    0    12.011   -2.269501   -5.507303    1.345007
   3 S    16.0000    0    32.060    1.402419    2.823419    3.053035
   4 C     6.0000    0    12.011    2.269501    5.507303    1.345007
   5 S    16.0000    0    32.060   -1.402419   -2.823419   -3.053035
   6 C     6.0000    0    12.011   -2.269501   -5.507303   -1.345007
   7 S    16.0000    0    32.060    1.402419    2.823419   -3.053035
   8 C     6.0000    0    12.011    2.269501    5.507303   -1.345007
   9 C     6.0000    0    12.011    2.981158    7.732711   -2.604143
  10 C     6.0000    0    12.011    2.981158    7.732711    2.604143
  11 C     6.0000    0    12.011    3.677244    9.917354    1.316043
  12 H     1.0000    0     1.008    2.966894    7.717160    4.654866
  13 C     6.0000    0    12.011    3.677244    9.917354   -1.316043
  14 H     1.0000    0     1.008    2.966894    7.717160   -4.654866
  15 H     1.0000    0     1.008    4.204917   11.606350    2.363572
  16 H     1.0000    0     1.008    4.204917   11.606350   -2.363572
  17 C     6.0000    0    12.011   -2.981158   -7.732711    2.604143
  18 C     6.0000    0    12.011   -2.981158   -7.732711   -2.604143
  19 C     6.0000    0    12.011   -3.677244   -9.917354    1.316043
  20 H     1.0000    0     1.008   -2.966894   -7.717160    4.654866
  21 C     6.0000    0    12.011   -3.677244   -9.917354   -1.316043
  22 H     1.0000    0     1.008   -2.966894   -7.717160   -4.654866
  23 H     1.0000    0     1.008   -4.204917  -11.606350    2.363572
  24 H     1.0000    0     1.008   -4.204917  -11.606350   -2.363572

--------------------------------
INTERNAL COORDINATES (ANGSTROEM)
--------------------------------
 Cu     0   0   0     0.000000000000     0.00000000     0.00000000
 S      1   0   0     2.322327762062     0.00000000     0.00000000
 C      2   1   0     1.744875324138   104.31984781     0.00000000
 S      1   2   3     2.322328395281    91.83712081   187.50640644
 C      4   1   2     1.744875369287   104.31982707   187.50611812
 S      1   2   3     2.322328622569    88.16280507     7.50647592
 C      3   2   1     1.423494000000   121.19832586   353.70135477
 S      1   2   3     2.322329247214   179.99970108   263.99704965
 C      5   4   1     1.423494000003   121.19837324   353.70182490
 C      9   5   4     1.404496998363   118.32083772   179.82878424
 C      5   4   1     1.404495283231   120.48045226   173.52755041
 C     11   5   4     1.391687653130   122.35231049   180.23207194
 H     11   5   4     1.085253447588   117.78545354   359.88983374
 C     10   9   5     1.391685171445   122.35238477   359.93837762
 H     10   9   5     1.085253452809   117.78539211   180.27947450
 H     12  11   5     1.088158180178   120.04734030   179.61543036
 H     14  10   9     1.088159201919   120.04736970   180.38443937
 C      3   2   1     1.404496615184   120.48051897   173.52724537
 C      7   3   2     1.404497253262   118.32082175   179.82965149
 C     18   3   2     1.391686440801   122.35231236   180.23142675
 H     18   3   2     1.085253451291   117.78542911   359.88979253
 C     19   7   3     1.391684814974   122.35238123   359.93759120
 H     19   7   3     1.085253451291   117.78532178   180.27947662
 H     20  18   3     1.088159344333   120.04734571   179.61552698
 H     22  19   7     1.088159570929   120.04737747   180.38450340

---------------------------
INTERNAL COORDINATES (A.U.)
---------------------------
 Cu     0   0   0     0.000000000000     0.00000000     0.00000000
 S      1   0   0     4.388563463500     0.00000000     0.00000000
 C      2   1   0     3.297336500458   104.31984781     0.00000000
 S      1   2   3     4.388564660110    91.83712081   187.50640644
 C      4   1   2     3.297336585777   104.31982707   187.50611812
 S      1   2   3     4.388565089622    88.16280507     7.50647592
 C      3   2   1     2.690013813281   121.19832586   353.70135477
 S      1   2   3     4.388566270029   179.99970108   263.99704965
 C      5   4   1     2.690013813286   121.19837324   353.70182490
 C      9   5   4     2.654114682821   118.32083772   179.82878424
 C      5   4   1     2.654111441691   120.48045226   173.52755041
 C     11   5   4     2.629908528375   122.35231049   180.23207194
 H     11   5   4     2.050831801835   117.78545354   359.88983374
 C     10   9   5     2.629903838670   122.35238477   359.93837762
 H     10   9   5     2.050831811702   117.78539211   180.27947450
 H     12  11   5     2.056320950923   120.04734030   179.61543036
 H     14  10   9     2.056322881734   120.04736970   180.38443937
 C      3   2   1     2.654113958716   120.48051897   173.52724537
 C      7   3   2     2.654115164510   118.32082175   179.82965149
 C     18   3   2     2.629906237405   122.35231236   180.23142675
 H     18   3   2     2.050831808834   117.78542911   359.88979253
 C     19   7   3     2.629903165038   122.35238123   359.93759120
 H     19   7   3     2.050831808834   117.78532178   180.27947662
 H     20  18   3     2.056323150856   120.04734571   179.61552698
 H     22  19   7     2.056323579062   120.04737747   180.38450340

---------------------
BASIS SET INFORMATION
---------------------
There are 4 groups of distinct atoms

 Group   1 Type Cu  : 126s75p30d12f4g contracted to 6s5p3d2f1g pattern {212121212121/1515151515/101010/66/4}
 Group   2 Type S   : 85s48p10d4f contracted to 5s4p2d1f pattern {1717171717/12121212/55/4}
 Group   3 Type C   : 42s18p4d contracted to 3s2p1d pattern {141414/99/4}
 Group   4 Type H   : 24s8p3d contracted to 3s2p1d pattern {888/44/3}

Atom   0Cu   basis set group =>   1
Atom   1S    basis set group =>   2
Atom   2C    basis set group =>   3
Atom   3S    basis set group =>   2
Atom   4C    basis set group =>   3
Atom   5S    basis set group =>   2
Atom   6C    basis set group =>   3
Atom   7S    basis set group =>   2
Atom   8C    basis set group =>   3
Atom   9C    basis set group =>   3
Atom  10C    basis set group =>   3
Atom  11C    basis set group =>   3
Atom  12H    basis set group =>   4
Atom  13C    basis set group =>   3
Atom  14H    basis set group =>   4
Atom  15H    basis set group =>   4
Atom  16H    basis set group =>   4
Atom  17C    basis set group =>   3
Atom  18C    basis set group =>   3
Atom  19C    basis set group =>   3
Atom  20H    basis set group =>   4
Atom  21C    basis set group =>   3
Atom  22H    basis set group =>   4
Atom  23H    basis set group =>   4
Atom  24H    basis set group =>   4

-------------------------
BASIS SET IN INPUT FORMAT
-------------------------

 # Basis set for element : H 
 NewGTO H 
 S 8 
   1     188.6144500000      0.0009638500
   2      28.2765960000      0.0074919600
   3       6.4248300000      0.0375954101
   4       1.8150410000      0.1433949804
   5       0.5910630000      0.3486363010
   6       0.2121490000      0.4382973612
   7       0.0798910000      0.1651066105
   8       0.0279620000      0.0210228701
 S 8 
   1     188.6144500000     -0.0013119000
   2      28.2765960000     -0.0103451000
   3       6.4248300000     -0.0504952998
   4       1.8150410000     -0.2073854991
   5       0.5910630000     -0.4350884981
   6       0.2121490000     -0.0247296999
   7       0.0798910000      0.3225259886
   8       0.0279620000      0.7072753770
 S 8 
   1     188.6144500000      0.0024224000
   2      28.2765960000      0.0203381700
   3       6.4248300000      0.0896393498
   4       1.8150410000      0.4422907090
   5       0.5910630000      0.5757143887
   6       0.2121490000     -0.9802889977
   7       0.0798910000     -0.6721537984
   8       0.0279620000      1.1417684974
 P 4 
   1       2.3050000000      0.1127901896
   2       0.8067500000      0.4185075284
   3       0.2823620000      0.4700077282
   4       0.0988270000      0.1826260293
 P 4 
   1       2.3050000000     -0.2108687968
   2       0.8067500000     -0.5943795909
   3       0.2823620000      0.0896888786
   4       0.0988270000      0.8611633869
 D 3 
   1       1.8190000000      0.2705134090
   2       0.7276000000      0.5510124980
   3       0.2910400000      0.3310866388
  end;

 # Basis set for element : C 
 NewGTO C 
 S 14 
   1   50557.5010000000      0.0001128874
   2    7524.7856000000      0.0005295373
   3    1694.3276000000      0.0024500383
   4     472.8227900000      0.0100539847
   5     151.7107500000      0.0354539806
   6      53.9187460000      0.1044071086
   7      20.6593110000      0.2412894918
   8       8.3839760000      0.3834225483
   9       3.5770150000      0.3078514393
  10       1.5471180000      0.0687244299
  11       0.6130130000      0.0002224445
  12       0.2460680000      0.0019767489
  13       0.0990870000      0.0020578594
  14       0.0346800000      0.0004182020
 S 14 
   1   50557.5010000000     -0.0000250742
   2    7524.7856000000     -0.0001175945
   3    1694.3276000000     -0.0005456275
   4     472.8227900000     -0.0022450771
   5     151.7107500000     -0.0080434718
   6      53.9187460000     -0.0244258871
   7      20.6593110000     -0.0613679118
   8       8.3839760000     -0.1177767835
   9       3.5770150000     -0.1550487783
  10       1.5471180000     -0.0193331686
  11       0.6130130000      0.3996930678
  12       0.2460680000      0.5589420949
  13       0.0990870000      0.1711195023
  14       0.0346800000      0.0074562446
 S 14 
   1   50557.5010000000      0.0000161788
   2    7524.7856000000      0.0000749712
   3    1694.3276000000      0.0003573467
   4     472.8227900000      0.0014349316
   5     151.7107500000      0.0055086779
   6      53.9187460000      0.0169149690
   7      20.6593110000      0.0514166524
   8       8.3839760000      0.1137343741
   9       3.5770150000      0.2337183944
  10       1.5471180000     -0.0718378257
  11       0.6130130000     -1.0490908711
  12       0.2460680000     -0.0666273399
  13       0.0990870000      1.0119993798
  14       0.0346800000      0.1656046386
 P 9 
   1      83.3331550000      0.0013446560
   2      19.5576110000      0.0102355550
   3       6.0803650000      0.0452006710
   4       2.1793170000      0.1410756198
   5       0.8651500000      0.3047388085
   6       0.3619440000      0.3995281011
   7       0.1547400000      0.2719163432
   8       0.0654290000      0.0585766933
   9       0.0229000000     -0.0001263813
 P 9 
   1      83.3331550000     -0.0017715885
   2      19.5576110000     -0.0145621810
   3       6.0803650000     -0.0574573357
   4       2.1793170000     -0.2126582848
   5       0.8651500000     -0.5271712924
   6       0.3619440000     -0.0929697730
   7       0.1547400000      0.6630031669
   8       0.0654290000      0.3360877793
   9       0.0229000000      0.0054695244
 D 4 
   1       1.9000000000      0.1424518048
   2       0.6650000000      0.5591973019
   3       0.2327500000      0.4430004380
   4       0.0814630000      0.0410665370
  end;

 # Basis set for element : S 
 NewGTO S 
 S 17 
   1  346348.2300000000      0.0002909200
   2   49391.1460000000      0.0009466500
   3   14610.9900000000      0.0021192300
   4    5187.2095000000      0.0060216101
   5    1980.9676000000      0.0165972602
   6     784.6313900000      0.0468398906
   7     317.3277900000      0.1224258115
   8     130.0197600000      0.2702243534
   9      53.7382080000      0.4054165750
  10      22.3458960000      0.2557152732
  11       9.3332512000      0.0267169303
  12       3.9111868000      0.0039033200
  13       1.6432066000     -0.0020418900
  14       0.6917456000      0.0014903400
  15       0.2916736000     -0.0006210700
  16       0.1231441000      0.0004416700
  17       0.0492576000     -0.0000032400
 S 17 
   1  346348.2300000000     -0.0000810100
   2   49391.1460000000     -0.0002638800
   3   14610.9900000000     -0.0005926300
   4    5187.2095000000     -0.0016876200
   5    1980.9676000000     -0.0047035700
   6     784.6313900000     -0.0135060701
   7     317.3277900000     -0.0371195902
   8     130.0197600000     -0.0911472306
   9      53.7382080000     -0.1778041811
  10      22.3458960000     -0.1706959211
  11       9.3332512000      0.1742316311
  12       3.9111868000      0.6328368240
  13       1.6432066000      0.3588663523
  14       0.6917456000     -0.0009644400
  15       0.2916736000      0.0065994200
  16       0.1231441000     -0.0052226600
  17       0.0492576000      0.0002938500
 S 17 
   1  346348.2300000000      0.0000228000
   2   49391.1460000000      0.0000742100
   3   14610.9900000000      0.0001671900
   4    5187.2095000000      0.0004737200
   5    1980.9676000000      0.0013310600
   6     784.6313900000      0.0037980100
   7     317.3277900000      0.0105810799
   8     130.0197600000      0.0260196998
   9      53.7382080000      0.0527900097
  10      22.3458960000      0.0519187797
  11       9.3332512000     -0.0569282797
  12       3.9111868000     -0.2909518982
  13       1.6432066000     -0.3163282781
  14       0.6917456000      0.2930993782
  15       0.2916736000      0.6678742660
  16       0.1231441000      0.2872519883
  17       0.0492576000      0.0151688699
 S 17 
   1  346348.2300000000     -0.0000234200
   2   49391.1460000000     -0.0000763700
   3   14610.9900000000     -0.0001708900
   4    5187.2095000000     -0.0004899900
   5    1980.9676000000     -0.0013529300
   6     784.6313900000     -0.0039282000
   7     317.3277900000     -0.0106763700
   8     130.0197600000     -0.0266181300
   9      53.7382080000     -0.0518302700
  10      22.3458960000     -0.0536224500
  11       9.3332512000      0.0708061100
  12       3.9111868000      0.2862498100
  13       1.6432066000      0.4962630700
  14       0.6917456000     -1.0710928201
  15       0.2916736000     -0.7920747001
  16       0.1231441000      1.1988185301
  17       0.0492576000      0.3247575000
 S 17 
   1  346348.2300000000      0.0000338900
   2   49391.1460000000      0.0001080700
   3   14610.9900000000      0.0002591100
   4    5187.2095000000      0.0006557500
   5    1980.9676000000      0.0021438200
   6     784.6313900000      0.0051887500
   7     317.3277900000      0.0175307300
   8     130.0197600000      0.0367282101
   9      53.7382080000      0.0984078002
  10      22.3458960000      0.0619843901
  11       9.3332512000     -0.0870655502
  12       3.9111868000     -0.7402903815
  13       1.6432066000     -0.2511528605
  14       0.6917456000      3.1197276262
  15       0.2916736000     -3.2657334365
  16       0.1231441000      0.4920158210
  17       0.0492576000      0.8345623917
 P 12 
   1    1129.1269000000      0.0009058600
   2     274.0351500000      0.0060003300
   3      97.4025840000      0.0253116602
   4      38.0855180000      0.0919894107
   5      15.4710330000      0.2416502819
   6       6.4056590000      0.4102909632
   7       2.6812828000      0.3521928728
   8       1.1300050000      0.0828164507
   9       0.4783995000      0.0000928000
  10       0.2031805000     -0.0022389700
  11       0.0864923000     -0.0013105000
  12       0.0345969000     -0.0002209200
 P 12 
   1    1129.1269000000     -0.0002245400
   2     274.0351500000     -0.0014885000
   3      97.4025840000     -0.0063494199
   4      38.0855180000     -0.0234428198
   5      15.4710330000     -0.0637025693
   6       6.4056590000     -0.1119708288
   7       2.6812828000     -0.1034727789
   8       1.1300050000      0.1090388789
   9       0.4783995000      0.4183874056
  10       0.2031805000      0.4369409054
  11       0.0864923000      0.1861970080
  12       0.0345969000      0.0283711897
 P 12 
   1    1129.1269000000      0.0002148100
   2     274.0351500000      0.0013786800
   3      97.4025840000      0.0061270600
   4      38.0855180000      0.0217045700
   5      15.4710330000      0.0624373400
   6       6.4056590000      0.1010861900
   7       2.6812828000      0.1170823100
   8       1.1300050000     -0.1626182800
   9       0.4783995000     -0.6646128299
  10       0.2031805000     -0.0025671900
  11       0.0864923000      0.7102817299
  12       0.0345969000      0.3213441399
 P 12 
   1    1129.1269000000     -0.0003343800
   2     274.0351500000     -0.0018333100
   3      97.4025840000     -0.0098956400
   4      38.0855180000     -0.0285233600
   5      15.4710330000     -0.1046413801
   6       6.4056590000     -0.1132883801
   7       2.6812828000     -0.2785634503
   8       1.1300050000      0.7352483107
   9       0.4783995000      0.6335807606
  10       0.2031805000     -1.5012724614
  11       0.0864923000      0.2467031202
  12       0.0345969000      0.7157853907
 D 5 
   1       3.0053679000      0.0358149997
   2       1.2172976000      0.1673418584
   3       0.4930556000      0.5760525045
   4       0.1997078000      0.3501406566
   5       0.0798831000      0.0446746096
 D 5 
   1       3.0053679000     -0.0833935699
   2       1.2172976000      0.5141401396
   3       0.4930556000      0.5282255395
   4       0.1997078000     -0.8555141893
   5       0.0798831000     -0.2680324398
 F 4 
   1       1.1000988000      0.2161817184
   2       0.5272133000      0.5455285260
   3       0.2526627000      0.3289330076
   4       0.1010651000      0.0748646694
  end;

 # Basis set for element : Cu
 NewGTO Cu
 S 21 
   1  9148883.0000000000      0.0001172200
   2  1369956.0000000000      0.0003315500
   3  311782.6000000000      0.0008824300
   4   88318.8000000000      0.0021722900
   5   28815.5300000000      0.0052954701
   6   10403.4600000000      0.0129663001
   7    4057.7910000000      0.0318805003
   8    1682.9740000000      0.0757656907
   9     733.7543000000      0.1624463715
  10     333.2677000000      0.2843595927
  11     156.4338000000      0.3417364333
  12      74.6972100000      0.2095508720
  13      33.3226200000      0.0354475103
  14      16.6223700000     -0.0024399600
  15       8.2082600000      0.0014699000
  16       3.6094000000     -0.0006437900
  17       1.6834490000      0.0002473800
  18       0.7337570000     -0.0000811800
  19       0.1102070000      0.0000161500
  20       0.0387860000     -0.0000123300
  21       0.0155140000      0.0000045200
 S 21 
   1  9148883.0000000000     -0.0000367500
   2  1369956.0000000000     -0.0001040300
   3  311782.6000000000     -0.0002773300
   4   88318.8000000000     -0.0006841700
   5   28815.5300000000     -0.0016768600
   6   10403.4600000000     -0.0041346000
   7    4057.7910000000     -0.0103512700
   8    1682.9740000000     -0.0253479100
   9     733.7543000000     -0.0583694699
  10     333.2677000000     -0.1167328398
  11     156.4338000000     -0.1846685996
  12      74.6972100000     -0.1470089897
  13      33.3226200000      0.1848325696
  14      16.6223700000      0.5677360889
  15       8.2082600000      0.3795609193
  16       3.6094000000      0.0470375499
  17       1.6834490000     -0.0007278300
  18       0.7337570000      0.0010297600
  19       0.1102070000     -0.0000702000
  20       0.0387860000      0.0000709000
  21       0.0155140000     -0.0000245400
 S 21 
   1  9148883.0000000000      0.0000138300
   2  1369956.0000000000      0.0000391400
   3  311782.6000000000      0.0001043900
   4   88318.8000000000      0.0002574500
   5   28815.5300000000      0.0006320300
   6   10403.4600000000      0.0015571800
   7    4057.7910000000      0.0039165900
   8    1682.9740000000      0.0095947599
   9     733.7543000000      0.0223883699
  10     333.2677000000      0.0452860597
  11     156.4338000000      0.0749837795
  12      74.6972100000      0.0618816996
  13      33.3226200000     -0.0904732694
  14      16.6223700000     -0.3928847174
  15       8.2082600000     -0.3566495576
  16       3.6094000000      0.3455479277
  17       1.6834490000      0.7063919653
  18       0.7337570000      0.2533591083
  19       0.1102070000      0.0065874900
  20       0.0387860000     -0.0004424700
  21       0.0155140000      0.0007233800
 S 21 
   1  9148883.0000000000     -0.0000027100
   2  1369956.0000000000     -0.0000076600
   3  311782.6000000000     -0.0000204700
   4   88318.8000000000     -0.0000503000
   5   28815.5300000000     -0.0001244200
   6   10403.4600000000     -0.0003026900
   7    4057.7910000000     -0.0007762800
   8    1682.9740000000     -0.0018524000
   9     733.7543000000     -0.0044827000
  10     333.2677000000     -0.0086602401
  11     156.4338000000     -0.0154472601
  12      74.6972100000     -0.0108986401
  13      33.3226200000      0.0146786701
  14      16.6223700000      0.0915412206
  15       8.2082600000      0.0633085704
  16       3.6094000000     -0.0609387904
  17       1.6834490000     -0.2714854517
  18       0.7337570000     -0.1013894406
  19       0.1102070000      0.7121218043
  20       0.0387860000      0.3461317521
  21       0.0155140000      0.0719870904
 S 21 
   1  9148883.0000000000      0.0000034600
   2  1369956.0000000000      0.0000097900
   3  311782.6000000000      0.0000262600
   4   88318.8000000000      0.0000639200
   5   28815.5300000000      0.0001608700
   6   10403.4600000000      0.0003802300
   7    4057.7910000000      0.0010171600
   8    1682.9740000000      0.0022915200
   9     733.7543000000      0.0059749700
  10     333.2677000000      0.0104469500
  11     156.4338000000      0.0215158300
  12      74.6972100000      0.0103012800
  13      33.3226200000     -0.0098432400
  14      16.6223700000     -0.1429262997
  15       8.2082600000     -0.0561270699
  16       3.6094000000      0.0913564998
  17       1.6834490000      0.4583140189
  18       0.7337570000     -0.1972673995
  19       0.1102070000     -1.3031015670
  20       0.0387860000      0.8797556780
  21       0.0155140000      0.5731088887
 S 21 
   1  9148883.0000000000     -0.0000140100
   2  1369956.0000000000     -0.0000395900
   3  311782.6000000000     -0.0001061200
   4   88318.8000000000     -0.0002590000
   5   28815.5300000000     -0.0006486500
   6   10403.4600000000     -0.0015477000
   7    4057.7910000000     -0.0040834200
   8    1682.9740000000     -0.0094020600
   9     733.7543000000     -0.0238911700
  10     333.2677000000     -0.0435983200
  11     156.4338000000     -0.0858885701
  12      74.6972100000     -0.0473486501
  13      33.3226200000      0.0638259201
  14      16.6223700000      0.5936354107
  15       8.2082600000      0.4150606205
  16       3.6094000000     -1.7002794219
  17       1.6834490000     -0.2979995603
  18       0.7337570000      1.7071942519
  19       0.1102070000     -0.6560005307
  20       0.0387860000     -0.3192452404
  21       0.0155140000      0.6177245607
 P 15 
   1    9713.2530000000      0.0003998700
   2    2300.8890000000      0.0021015700
   3     746.7706000000      0.0100109700
   4     284.6806000000      0.0383603898
   5     119.9999000000      0.1162675595
   6      54.0738600000      0.2589983089
   7      25.3732100000      0.3842822584
   8      12.2096200000      0.2991120987
   9       5.7574210000      0.0800067197
  10       2.6734020000      0.0031944000
  11       1.1868350000      0.0014725200
  12       0.4815930000     -0.0002339100
  13       0.1926370000      0.0002076100
  14       0.0770550000     -0.0000896300
  15       0.0308220000      0.0000278300
 P 15 
   1    9713.2530000000     -0.0001487900
   2    2300.8890000000     -0.0007826200
   3     746.7706000000     -0.0037622900
   4     284.6806000000     -0.0145796799
   5     119.9999000000     -0.0457109297
   6      54.0738600000     -0.1059301293
   7      25.3732100000     -0.1683622789
   8      12.2096200000     -0.1037321293
   9       5.7574210000      0.2108315487
  10       2.6734020000      0.4891644269
  11       1.1868350000      0.3846863776
  12       0.4815930000      0.0852933795
  13       0.1926370000     -0.0016104500
  14       0.0770550000      0.0020653000
  15       0.0308220000     -0.0006417500
 P 15 
   1    9713.2530000000      0.0000505300
   2    2300.8890000000      0.0002671900
   3     746.7706000000      0.0012771800
   4     284.6806000000      0.0049976000
   5     119.9999000000      0.0156137599
   6      54.0738600000      0.0368970098
   7      25.3732100000      0.0579646897
   8      12.2096200000      0.0379196598
   9       5.7574210000     -0.1170649894
  10       2.6734020000     -0.2091225689
  11       1.1868350000     -0.0580053197
  12       0.4815930000      0.1643073591
  13       0.1926370000      0.5288546572
  14       0.0770550000      0.3737301580
  15       0.0308220000      0.0839986596
 P 15 
   1    9713.2530000000     -0.0001587800
   2    2300.8890000000     -0.0008535900
   3     746.7706000000     -0.0039991900
   4     284.6806000000     -0.0160809199
   5     119.9999000000     -0.0492486397
   6      54.0738600000     -0.1216567894
   7      25.3732100000     -0.1771336691
   8      12.2096200000     -0.1444819692
   9       5.7574210000      0.6474331066
  10       2.6734020000      0.5479769171
  11       1.1868350000     -0.7818032059
  12       0.4815930000     -0.5260777772
  13       0.1926370000      0.2243717688
  14       0.0770550000      0.3339245282
  15       0.0308220000      0.1444637392
 P 15 
   1    9713.2530000000      0.0001267900
   2    2300.8890000000      0.0006839700
   3     746.7706000000      0.0032029100
   4     284.6806000000      0.0130135100
   5     119.9999000000      0.0402137099
   6      54.0738600000      0.1015010898
   7      25.3732100000      0.1370095397
   8      12.2096200000      0.1062897198
   9       5.7574210000     -0.8339026482
  10       2.6734020000      0.1441200197
  11       1.1868350000      0.9830123878
  12       0.4815930000     -0.5295641788
  13       0.1926370000     -0.7530398383
  14       0.0770550000      0.4428869990
  15       0.0308220000      0.5751158887
 D 10 
   1     249.3497000000      0.0013456100
   2      74.6383700000      0.0108098300
   3      28.3764100000      0.0473379301
   4      11.9489300000      0.1377258202
   5       5.3176460000      0.2626383304
   6       2.3644170000      0.3347040105
   7       1.0123860000      0.3100059705
   8       0.4067730000      0.2131681903
   9       0.1473310000      0.0786536501
  10       0.0589320000      0.0060309600
 D 10 
   1     249.3497000000     -0.0015835900
   2      74.6383700000     -0.0128111601
   3      28.3764100000     -0.0564267902
   4      11.9489300000     -0.1664139307
   5       5.3176460000     -0.3510601415
   6       2.3644170000     -0.2371789010
   7       1.0123860000      0.2199464110
   8       0.4067730000      0.4884136321
   9       0.1473310000      0.2953713113
  10       0.0589320000      0.0429553902
 D 10 
   1     249.3497000000      0.0019111600
   2      74.6383700000      0.0177249500
   3      28.3764100000      0.0705638099
   4      11.9489300000      0.2290610097
   5       5.3176460000      0.4393851094
   6       2.3644170000     -0.2673990797
   7       1.0123860000     -0.6259062392
   8       0.4067730000      0.1221133998
   9       0.1473310000      0.5368362893
  10       0.0589320000      0.1975005497
 F 6 
   1      15.4333000000      0.0368206299
   2       6.1172000000      0.2459141793
   3       2.4246000000      0.5011268786
   4       0.9610000000      0.3585064790
   5       0.3809000000      0.1472806196
   6       0.1510000000      0.0256474799
 F 6 
   1      15.4333000000     -0.0620033603
   2       6.1172000000     -0.5287666929
   3       2.4246000000     -0.2907838616
   4       0.9610000000      0.5212415728
   5       0.3809000000      0.3753220521
   6       0.1510000000      0.1065979806
 G 4 
   1       8.7286000000      0.1690384791
   2       3.4308000000      0.6065418469
   3       1.3485000000      0.3797989880
   4       0.5300000000      0.1036775695
  end;

---------------------------------
AUXILIARY/J BASIS SET INFORMATION
---------------------------------
There are 4 groups of distinct atoms

 Group   1 Type Cu  : 23s20p18d17f13g5h contracted to 23s20p18d17f13g5h pattern {11111111111111111111111/11111111111111111111/111111111111111111/11111111111111111/1111111111111/11111}
 Group   2 Type S   : 20s17p16d7f contracted to 20s17p16d7f pattern {11111111111111111111/11111111111111111/1111111111111111/1111111}
 Group   3 Type C   : 17s14p13d4f contracted to 17s14p13d4f pattern {11111111111111111/11111111111111/1111111111111/1111}
 Group   4 Type H   : 12s5p4d3f contracted to 12s5p4d3f pattern {111111111111/11111/1111/111}

Atom   0Cu   basis set group =>   1
Atom   1S    basis set group =>   2
Atom   2C    basis set group =>   3
Atom   3S    basis set group =>   2
Atom   4C    basis set group =>   3
Atom   5S    basis set group =>   2
Atom   6C    basis set group =>   3
Atom   7S    basis set group =>   2
Atom   8C    basis set group =>   3
Atom   9C    basis set group =>   3
Atom  10C    basis set group =>   3
Atom  11C    basis set group =>   3
Atom  12H    basis set group =>   4
Atom  13C    basis set group =>   3
Atom  14H    basis set group =>   4
Atom  15H    basis set group =>   4
Atom  16H    basis set group =>   4
Atom  17C    basis set group =>   3
Atom  18C    basis set group =>   3
Atom  19C    basis set group =>   3
Atom  20H    basis set group =>   4
Atom  21C    basis set group =>   3
Atom  22H    basis set group =>   4
Atom  23H    basis set group =>   4
Atom  24H    basis set group =>   4

-------------------------------------
AUXILIARY/J BASIS SET IN INPUT FORMAT
-------------------------------------

 # Auxiliary/J basis set for element : H 
 NewAuxJGTO H 
 S 1 
   1      35.9414656527      1.0000000000
 S 1 
   1      19.9674809182      1.0000000000
 S 1 
   1      11.0930449545      1.0000000000
 S 1 
   1       6.1628027525      1.0000000000
 S 1 
   1       3.4237793070      1.0000000000
 S 1 
   1       1.9020996150      1.0000000000
 S 1 
   1       1.0567220083      1.0000000000
 S 1 
   1       0.5870677824      1.0000000000
 S 1 
   1       0.3261487680      1.0000000000
 S 1 
   1       0.1811937600      1.0000000000
 S 1 
   1       0.1006632000      1.0000000000
 S 1 
   1       0.0559240000      1.0000000000
 P 1 
   1       2.0286240000      1.0000000000
 P 1 
   1       1.0143120000      1.0000000000
 P 1 
   1       0.5071560000      1.0000000000
 P 1 
   1       0.2535780000      1.0000000000
 P 1 
   1       0.1267890000      1.0000000000
 D 1 
   1       2.1046197920      1.0000000000
 D 1 
   1       0.9566453600      1.0000000000
 D 1 
   1       0.4348388000      1.0000000000
 D 1 
   1       0.1976540000      1.0000000000
 F 1 
   1       1.8869562800      1.0000000000
 F 1 
   1       0.8577074000      1.0000000000
 F 1 
   1       0.3898670000      1.0000000000
  end;

 # Auxiliary/J basis set for element : C 
 NewAuxJGTO C 
 S 1 
   1     556.1930524224      1.0000000000
 S 1 
   1     308.9961402347      1.0000000000
 S 1 
   1     171.6645223526      1.0000000000
 S 1 
   1      95.3691790848      1.0000000000
 S 1 
   1      52.9828772693      1.0000000000
 S 1 
   1      29.4349318163      1.0000000000
 S 1 
   1      16.3527398979      1.0000000000
 S 1 
   1       9.0848554989      1.0000000000
 S 1 
   1       5.0471419438      1.0000000000
 S 1 
   1       2.8039677466      1.0000000000
 S 1 
   1       1.5577598592      1.0000000000
 S 1 
   1       0.8654221440      1.0000000000
 S 1 
   1       0.4807900800      1.0000000000
 S 1 
   1       0.2671056000      1.0000000000
 S 1 
   1       0.1483920000      1.0000000000
 S 1 
   1       0.0824400000      1.0000000000
 S 1 
   1       0.0458000000      1.0000000000
 P 1 
   1      95.3691790848      1.0000000000
 P 1 
   1      52.9828772693      1.0000000000
 P 1 
   1      29.4349318163      1.0000000000
 P 1 
   1      16.3527398979      1.0000000000
 P 1 
   1       9.0848554989      1.0000000000
 P 1 
   1       5.0471419438      1.0000000000
 P 1 
   1       2.8039677466      1.0000000000
 P 1 
   1       1.5577598592      1.0000000000
 P 1 
   1       0.8654221440      1.0000000000
 P 1 
   1       0.4807900800      1.0000000000
 P 1 
   1       0.2671056000      1.0000000000
 P 1 
   1       0.1483920000      1.0000000000
 P 1 
   1       0.0824400000      1.0000000000
 P 1 
   1       0.0458000000      1.0000000000
 D 1 
   1      52.9828772693      1.0000000000
 D 1 
   1      29.4349318163      1.0000000000
 D 1 
   1      16.3527398979      1.0000000000
 D 1 
   1       9.0848554989      1.0000000000
 D 1 
   1       5.0471419438      1.0000000000
 D 1 
   1       2.8039677466      1.0000000000
 D 1 
   1       1.5577598592      1.0000000000
 D 1 
   1       0.8654221440      1.0000000000
 D 1 
   1       0.4807900800      1.0000000000
 D 1 
   1       0.2671056000      1.0000000000
 D 1 
   1       0.1483920000      1.0000000000
 D 1 
   1       0.0824400000      1.0000000000
 D 1 
   1       0.0458000000      1.0000000000
 F 1 
   1       1.1112572240      1.0000000000
 F 1 
   1       0.5051169200      1.0000000000
 F 1 
   1       0.2295986000      1.0000000000
 F 1 
   1       0.1043630000      1.0000000000
  end;

 # Auxiliary/J basis set for element : S 
 NewAuxJGTO S 
 S 1 
   1    4900.5494839448      1.0000000000
 S 1 
   1    2722.5274910805      1.0000000000
 S 1 
   1    1512.5152728225      1.0000000000
 S 1 
   1     840.2862626792      1.0000000000
 S 1 
   1     466.8257014884      1.0000000000
 S 1 
   1     259.3476119380      1.0000000000
 S 1 
   1     144.0820066322      1.0000000000
 S 1 
   1      80.0455592401      1.0000000000
 S 1 
   1      44.4697551334      1.0000000000
 S 1 
   1      24.7054195186      1.0000000000
 S 1 
   1      13.7252330659      1.0000000000
 S 1 
   1       7.6251294810      1.0000000000
 S 1 
   1       4.2361830450      1.0000000000
 S 1 
   1       2.3534350250      1.0000000000
 S 1 
   1       1.3074639028      1.0000000000
 S 1 
   1       0.7263688349      1.0000000000
 S 1 
   1       0.4035382416      1.0000000000
 S 1 
   1       0.2241879120      1.0000000000
 S 1 
   1       0.1245488400      1.0000000000
 S 1 
   1       0.0691938000      1.0000000000
 P 1 
   1     840.2862626792      1.0000000000
 P 1 
   1     466.8257014884      1.0000000000
 P 1 
   1     259.3476119380      1.0000000000
 P 1 
   1     144.0820066322      1.0000000000
 P 1 
   1      80.0455592401      1.0000000000
 P 1 
   1      44.4697551334      1.0000000000
 P 1 
   1      24.7054195186      1.0000000000
 P 1 
   1      13.7252330659      1.0000000000
 P 1 
   1       7.6251294810      1.0000000000
 P 1 
   1       4.2361830450      1.0000000000
 P 1 
   1       2.3534350250      1.0000000000
 P 1 
   1       1.3074639028      1.0000000000
 P 1 
   1       0.7263688349      1.0000000000
 P 1 
   1       0.4035382416      1.0000000000
 P 1 
   1       0.2241879120      1.0000000000
 P 1 
   1       0.1245488400      1.0000000000
 P 1 
   1       0.0691938000      1.0000000000
 D 1 
   1     466.8257014884      1.0000000000
 D 1 
   1     259.3476119380      1.0000000000
 D 1 
   1     144.0820066322      1.0000000000
 D 1 
   1      80.0455592401      1.0000000000
 D 1 
   1      44.4697551334      1.0000000000
 D 1 
   1      24.7054195186      1.0000000000
 D 1 
   1      13.7252330659      1.0000000000
 D 1 
   1       7.6251294810      1.0000000000
 D 1 
   1       4.2361830450      1.0000000000
 D 1 
   1       2.3534350250      1.0000000000
 D 1 
   1       1.3074639028      1.0000000000
 D 1 
   1       0.7263688349      1.0000000000
 D 1 
   1       0.4035382416      1.0000000000
 D 1 
   1       0.2241879120      1.0000000000
 D 1 
   1       0.1245488400      1.0000000000
 D 1 
   1       0.0691938000      1.0000000000
 F 1 
   1      12.9797314099      1.0000000000
 F 1 
   1       5.8998779136      1.0000000000
 F 1 
   1       2.6817626880      1.0000000000
 F 1 
   1       1.2189830400      1.0000000000
 F 1 
   1       0.5540832000      1.0000000000
 F 1 
   1       0.2518560000      1.0000000000
 F 1 
   1       0.1144800000      1.0000000000
  end;

 # Auxiliary/J basis set for element : Cu
 NewAuxJGTO Cu
 S 1 
   1   12815.8936556437      1.0000000000
 S 1 
   1    7119.9409198021      1.0000000000
 S 1 
   1    3955.5227332234      1.0000000000
 S 1 
   1    2197.5126295685      1.0000000000
 S 1 
   1    1220.8403497603      1.0000000000
 S 1 
   1     678.2446387557      1.0000000000
 S 1 
   1     376.8025770865      1.0000000000
 S 1 
   1     209.3347650481      1.0000000000
 S 1 
   1     116.2970916934      1.0000000000
 S 1 
   1      64.6094953852      1.0000000000
 S 1 
   1      35.8941641029      1.0000000000
 S 1 
   1      19.9412022794      1.0000000000
 S 1 
   1      11.0784457108      1.0000000000
 S 1 
   1       6.1546920615      1.0000000000
 S 1 
   1       3.4192733675      1.0000000000
 S 1 
   1       1.8995963153      1.0000000000
 S 1 
   1       1.0553312863      1.0000000000
 S 1 
   1       0.5862951590      1.0000000000
 S 1 
   1       0.3257195328      1.0000000000
 S 1 
   1       0.1809552960      1.0000000000
 S 1 
   1       0.1005307200      1.0000000000
 S 1 
   1       0.0558504000      1.0000000000
 S 1 
   1       0.0310280000      1.0000000000
 P 1 
   1    3281.6792962385      1.0000000000
 P 1 
   1    1823.1551645769      1.0000000000
 P 1 
   1    1012.8639803205      1.0000000000
 P 1 
   1     562.7022112892      1.0000000000
 P 1 
   1     312.6123396051      1.0000000000
 P 1 
   1     173.6735220028      1.0000000000
 P 1 
   1      96.4852900016      1.0000000000
 P 1 
   1      53.6029388898      1.0000000000
 P 1 
   1      29.7794104943      1.0000000000
 P 1 
   1      16.5441169413      1.0000000000
 P 1 
   1       9.1911760785      1.0000000000
 P 1 
   1       5.1062089325      1.0000000000
 P 1 
   1       2.8367827403      1.0000000000
 P 1 
   1       1.5759904113      1.0000000000
 P 1 
   1       0.8755502285      1.0000000000
 P 1 
   1       0.4864167936      1.0000000000
 P 1 
   1       0.2702315520      1.0000000000
 P 1 
   1       0.1501286400      1.0000000000
 P 1 
   1       0.0834048000      1.0000000000
 P 1 
   1       0.0463360000      1.0000000000
 D 1 
   1    1347.4833218853      1.0000000000
 D 1 
   1     748.6018454918      1.0000000000
 D 1 
   1     415.8899141621      1.0000000000
 D 1 
   1     231.0499523123      1.0000000000
 D 1 
   1     128.3610846179      1.0000000000
 D 1 
   1      71.3117136766      1.0000000000
 D 1 
   1      39.6176187092      1.0000000000
 D 1 
   1      22.0097881718      1.0000000000
 D 1 
   1      12.2276600954      1.0000000000
 D 1 
   1       6.7931444975      1.0000000000
 D 1 
   1       3.7739691653      1.0000000000
 D 1 
   1       2.0966495363      1.0000000000
 D 1 
   1       1.1648052979      1.0000000000
 D 1 
   1       0.6471140544      1.0000000000
 D 1 
   1       0.3595078080      1.0000000000
 D 1 
   1       0.1997265600      1.0000000000
 D 1 
   1       0.1109592000      1.0000000000
 D 1 
   1       0.0616440000      1.0000000000
 F 1 
   1    1089.9683674044      1.0000000000
 F 1 
   1     605.5379818913      1.0000000000
 F 1 
   1     336.4099899396      1.0000000000
 F 1 
   1     186.8944388553      1.0000000000
 F 1 
   1     103.8302438085      1.0000000000
 F 1 
   1      57.6834687825      1.0000000000
 F 1 
   1      32.0463715458      1.0000000000
 F 1 
   1      17.8035397477      1.0000000000
 F 1 
   1       9.8908554154      1.0000000000
 F 1 
   1       5.4949196752      1.0000000000
 F 1 
   1       3.0527331529      1.0000000000
 F 1 
   1       1.6959628627      1.0000000000
 F 1 
   1       0.9422015904      1.0000000000
 F 1 
   1       0.5234453280      1.0000000000
 F 1 
   1       0.2908029600      1.0000000000
 F 1 
   1       0.1615572000      1.0000000000
 F 1 
   1       0.0897540000      1.0000000000
 G 1 
   1     136.3487739404      1.0000000000
 G 1 
   1      75.7493188558      1.0000000000
 G 1 
   1      42.0829549199      1.0000000000
 G 1 
   1      23.3794193999      1.0000000000
 G 1 
   1      12.9885663333      1.0000000000
 G 1 
   1       7.2158701852      1.0000000000
 G 1 
   1       4.0088167695      1.0000000000
 G 1 
   1       2.2271204275      1.0000000000
 G 1 
   1       1.2372891264      1.0000000000
 G 1 
   1       0.6873828480      1.0000000000
 G 1 
   1       0.3818793600      1.0000000000
 G 1 
   1       0.2121552000      1.0000000000
 G 1 
   1       0.1178640000      1.0000000000
 H 1 
   1       5.8747580812      1.0000000000
 H 1 
   1       2.5542426440      1.0000000000
 H 1 
   1       1.1105402800      1.0000000000
 H 1 
   1       0.4828436000      1.0000000000
 H 1 
   1       0.2099320000      1.0000000000
  end;

---------------------------------
AUXILIARY/C BASIS SET INFORMATION
---------------------------------
There are 4 groups of distinct atoms

 Group   1 Type Cu  : 23s20p18d17f13g5h contracted to 23s20p18d17f13g5h pattern {11111111111111111111111/11111111111111111111/111111111111111111/11111111111111111/1111111111111/11111}
 Group   2 Type S   : 20s17p16d7f contracted to 20s17p16d7f pattern {11111111111111111111/11111111111111111/1111111111111111/1111111}
 Group   3 Type C   : 17s14p13d4f contracted to 17s14p13d4f pattern {11111111111111111/11111111111111/1111111111111/1111}
 Group   4 Type H   : 12s5p4d3f contracted to 12s5p4d3f pattern {111111111111/11111/1111/111}

Atom   0Cu   basis set group =>   1
Atom   1S    basis set group =>   2
Atom   2C    basis set group =>   3
Atom   3S    basis set group =>   2
Atom   4C    basis set group =>   3
Atom   5S    basis set group =>   2
Atom   6C    basis set group =>   3
Atom   7S    basis set group =>   2
Atom   8C    basis set group =>   3
Atom   9C    basis set group =>   3
Atom  10C    basis set group =>   3
Atom  11C    basis set group =>   3
Atom  12H    basis set group =>   4
Atom  13C    basis set group =>   3
Atom  14H    basis set group =>   4
Atom  15H    basis set group =>   4
Atom  16H    basis set group =>   4
Atom  17C    basis set group =>   3
Atom  18C    basis set group =>   3
Atom  19C    basis set group =>   3
Atom  20H    basis set group =>   4
Atom  21C    basis set group =>   3
Atom  22H    basis set group =>   4
Atom  23H    basis set group =>   4
Atom  24H    basis set group =>   4

-------------------------------------
AUXILIARY/C BASIS SET IN INPUT FORMAT
-------------------------------------

 # Auxiliary/C basis set for element : H 
 NewAuxCGTO H 
 S 1 
   1      35.9414656527      1.0000000000
 S 1 
   1      19.9674809182      1.0000000000
 S 1 
   1      11.0930449545      1.0000000000
 S 1 
   1       6.1628027525      1.0000000000
 S 1 
   1       3.4237793070      1.0000000000
 S 1 
   1       1.9020996150      1.0000000000
 S 1 
   1       1.0567220083      1.0000000000
 S 1 
   1       0.5870677824      1.0000000000
 S 1 
   1       0.3261487680      1.0000000000
 S 1 
   1       0.1811937600      1.0000000000
 S 1 
   1       0.1006632000      1.0000000000
 S 1 
   1       0.0559240000      1.0000000000
 P 1 
   1       2.0286240000      1.0000000000
 P 1 
   1       1.0143120000      1.0000000000
 P 1 
   1       0.5071560000      1.0000000000
 P 1 
   1       0.2535780000      1.0000000000
 P 1 
   1       0.1267890000      1.0000000000
 D 1 
   1       2.1046197920      1.0000000000
 D 1 
   1       0.9566453600      1.0000000000
 D 1 
   1       0.4348388000      1.0000000000
 D 1 
   1       0.1976540000      1.0000000000
 F 1 
   1       1.8869562800      1.0000000000
 F 1 
   1       0.8577074000      1.0000000000
 F 1 
   1       0.3898670000      1.0000000000
  end;

 # Auxiliary/C basis set for element : C 
 NewAuxCGTO C 
 S 1 
   1     556.1930524224      1.0000000000
 S 1 
   1     308.9961402347      1.0000000000
 S 1 
   1     171.6645223526      1.0000000000
 S 1 
   1      95.3691790848      1.0000000000
 S 1 
   1      52.9828772693      1.0000000000
 S 1 
   1      29.4349318163      1.0000000000
 S 1 
   1      16.3527398979      1.0000000000
 S 1 
   1       9.0848554989      1.0000000000
 S 1 
   1       5.0471419438      1.0000000000
 S 1 
   1       2.8039677466      1.0000000000
 S 1 
   1       1.5577598592      1.0000000000
 S 1 
   1       0.8654221440      1.0000000000
 S 1 
   1       0.4807900800      1.0000000000
 S 1 
   1       0.2671056000      1.0000000000
 S 1 
   1       0.1483920000      1.0000000000
 S 1 
   1       0.0824400000      1.0000000000
 S 1 
   1       0.0458000000      1.0000000000
 P 1 
   1      95.3691790848      1.0000000000
 P 1 
   1      52.9828772693      1.0000000000
 P 1 
   1      29.4349318163      1.0000000000
 P 1 
   1      16.3527398979      1.0000000000
 P 1 
   1       9.0848554989      1.0000000000
 P 1 
   1       5.0471419438      1.0000000000
 P 1 
   1       2.8039677466      1.0000000000
 P 1 
   1       1.5577598592      1.0000000000
 P 1 
   1       0.8654221440      1.0000000000
 P 1 
   1       0.4807900800      1.0000000000
 P 1 
   1       0.2671056000      1.0000000000
 P 1 
   1       0.1483920000      1.0000000000
 P 1 
   1       0.0824400000      1.0000000000
 P 1 
   1       0.0458000000      1.0000000000
 D 1 
   1      52.9828772693      1.0000000000
 D 1 
   1      29.4349318163      1.0000000000
 D 1 
   1      16.3527398979      1.0000000000
 D 1 
   1       9.0848554989      1.0000000000
 D 1 
   1       5.0471419438      1.0000000000
 D 1 
   1       2.8039677466      1.0000000000
 D 1 
   1       1.5577598592      1.0000000000
 D 1 
   1       0.8654221440      1.0000000000
 D 1 
   1       0.4807900800      1.0000000000
 D 1 
   1       0.2671056000      1.0000000000
 D 1 
   1       0.1483920000      1.0000000000
 D 1 
   1       0.0824400000      1.0000000000
 D 1 
   1       0.0458000000      1.0000000000
 F 1 
   1       1.1112572240      1.0000000000
 F 1 
   1       0.5051169200      1.0000000000
 F 1 
   1       0.2295986000      1.0000000000
 F 1 
   1       0.1043630000      1.0000000000
  end;

 # Auxiliary/C basis set for element : S 
 NewAuxCGTO S 
 S 1 
   1    4900.5494839448      1.0000000000
 S 1 
   1    2722.5274910805      1.0000000000
 S 1 
   1    1512.5152728225      1.0000000000
 S 1 
   1     840.2862626792      1.0000000000
 S 1 
   1     466.8257014884      1.0000000000
 S 1 
   1     259.3476119380      1.0000000000
 S 1 
   1     144.0820066322      1.0000000000
 S 1 
   1      80.0455592401      1.0000000000
 S 1 
   1      44.4697551334      1.0000000000
 S 1 
   1      24.7054195186      1.0000000000
 S 1 
   1      13.7252330659      1.0000000000
 S 1 
   1       7.6251294810      1.0000000000
 S 1 
   1       4.2361830450      1.0000000000
 S 1 
   1       2.3534350250      1.0000000000
 S 1 
   1       1.3074639028      1.0000000000
 S 1 
   1       0.7263688349      1.0000000000
 S 1 
   1       0.4035382416      1.0000000000
 S 1 
   1       0.2241879120      1.0000000000
 S 1 
   1       0.1245488400      1.0000000000
 S 1 
   1       0.0691938000      1.0000000000
 P 1 
   1     840.2862626792      1.0000000000
 P 1 
   1     466.8257014884      1.0000000000
 P 1 
   1     259.3476119380      1.0000000000
 P 1 
   1     144.0820066322      1.0000000000
 P 1 
   1      80.0455592401      1.0000000000
 P 1 
   1      44.4697551334      1.0000000000
 P 1 
   1      24.7054195186      1.0000000000
 P 1 
   1      13.7252330659      1.0000000000
 P 1 
   1       7.6251294810      1.0000000000
 P 1 
   1       4.2361830450      1.0000000000
 P 1 
   1       2.3534350250      1.0000000000
 P 1 
   1       1.3074639028      1.0000000000
 P 1 
   1       0.7263688349      1.0000000000
 P 1 
   1       0.4035382416      1.0000000000
 P 1 
   1       0.2241879120      1.0000000000
 P 1 
   1       0.1245488400      1.0000000000
 P 1 
   1       0.0691938000      1.0000000000
 D 1 
   1     466.8257014884      1.0000000000
 D 1 
   1     259.3476119380      1.0000000000
 D 1 
   1     144.0820066322      1.0000000000
 D 1 
   1      80.0455592401      1.0000000000
 D 1 
   1      44.4697551334      1.0000000000
 D 1 
   1      24.7054195186      1.0000000000
 D 1 
   1      13.7252330659      1.0000000000
 D 1 
   1       7.6251294810      1.0000000000
 D 1 
   1       4.2361830450      1.0000000000
 D 1 
   1       2.3534350250      1.0000000000
 D 1 
   1       1.3074639028      1.0000000000
 D 1 
   1       0.7263688349      1.0000000000
 D 1 
   1       0.4035382416      1.0000000000
 D 1 
   1       0.2241879120      1.0000000000
 D 1 
   1       0.1245488400      1.0000000000
 D 1 
   1       0.0691938000      1.0000000000
 F 1 
   1      12.9797314099      1.0000000000
 F 1 
   1       5.8998779136      1.0000000000
 F 1 
   1       2.6817626880      1.0000000000
 F 1 
   1       1.2189830400      1.0000000000
 F 1 
   1       0.5540832000      1.0000000000
 F 1 
   1       0.2518560000      1.0000000000
 F 1 
   1       0.1144800000      1.0000000000
  end;

 # Auxiliary/C basis set for element : Cu
 NewAuxCGTO Cu
 S 1 
   1   12815.8936556437      1.0000000000
 S 1 
   1    7119.9409198021      1.0000000000
 S 1 
   1    3955.5227332234      1.0000000000
 S 1 
   1    2197.5126295685      1.0000000000
 S 1 
   1    1220.8403497603      1.0000000000
 S 1 
   1     678.2446387557      1.0000000000
 S 1 
   1     376.8025770865      1.0000000000
 S 1 
   1     209.3347650481      1.0000000000
 S 1 
   1     116.2970916934      1.0000000000
 S 1 
   1      64.6094953852      1.0000000000
 S 1 
   1      35.8941641029      1.0000000000
 S 1 
   1      19.9412022794      1.0000000000
 S 1 
   1      11.0784457108      1.0000000000
 S 1 
   1       6.1546920615      1.0000000000
 S 1 
   1       3.4192733675      1.0000000000
 S 1 
   1       1.8995963153      1.0000000000
 S 1 
   1       1.0553312863      1.0000000000
 S 1 
   1       0.5862951590      1.0000000000
 S 1 
   1       0.3257195328      1.0000000000
 S 1 
   1       0.1809552960      1.0000000000
 S 1 
   1       0.1005307200      1.0000000000
 S 1 
   1       0.0558504000      1.0000000000
 S 1 
   1       0.0310280000      1.0000000000
 P 1 
   1    3281.6792962385      1.0000000000
 P 1 
   1    1823.1551645769      1.0000000000
 P 1 
   1    1012.8639803205      1.0000000000
 P 1 
   1     562.7022112892      1.0000000000
 P 1 
   1     312.6123396051      1.0000000000
 P 1 
   1     173.6735220028      1.0000000000
 P 1 
   1      96.4852900016      1.0000000000
 P 1 
   1      53.6029388898      1.0000000000
 P 1 
   1      29.7794104943      1.0000000000
 P 1 
   1      16.5441169413      1.0000000000
 P 1 
   1       9.1911760785      1.0000000000
 P 1 
   1       5.1062089325      1.0000000000
 P 1 
   1       2.8367827403      1.0000000000
 P 1 
   1       1.5759904113      1.0000000000
 P 1 
   1       0.8755502285      1.0000000000
 P 1 
   1       0.4864167936      1.0000000000
 P 1 
   1       0.2702315520      1.0000000000
 P 1 
   1       0.1501286400      1.0000000000
 P 1 
   1       0.0834048000      1.0000000000
 P 1 
   1       0.0463360000      1.0000000000
 D 1 
   1    1347.4833218853      1.0000000000
 D 1 
   1     748.6018454918      1.0000000000
 D 1 
   1     415.8899141621      1.0000000000
 D 1 
   1     231.0499523123      1.0000000000
 D 1 
   1     128.3610846179      1.0000000000
 D 1 
   1      71.3117136766      1.0000000000
 D 1 
   1      39.6176187092      1.0000000000
 D 1 
   1      22.0097881718      1.0000000000
 D 1 
   1      12.2276600954      1.0000000000
 D 1 
   1       6.7931444975      1.0000000000
 D 1 
   1       3.7739691653      1.0000000000
 D 1 
   1       2.0966495363      1.0000000000
 D 1 
   1       1.1648052979      1.0000000000
 D 1 
   1       0.6471140544      1.0000000000
 D 1 
   1       0.3595078080      1.0000000000
 D 1 
   1       0.1997265600      1.0000000000
 D 1 
   1       0.1109592000      1.0000000000
 D 1 
   1       0.0616440000      1.0000000000
 F 1 
   1    1089.9683674044      1.0000000000
 F 1 
   1     605.5379818913      1.0000000000
 F 1 
   1     336.4099899396      1.0000000000
 F 1 
   1     186.8944388553      1.0000000000
 F 1 
   1     103.8302438085      1.0000000000
 F 1 
   1      57.6834687825      1.0000000000
 F 1 
   1      32.0463715458      1.0000000000
 F 1 
   1      17.8035397477      1.0000000000
 F 1 
   1       9.8908554154      1.0000000000
 F 1 
   1       5.4949196752      1.0000000000
 F 1 
   1       3.0527331529      1.0000000000
 F 1 
   1       1.6959628627      1.0000000000
 F 1 
   1       0.9422015904      1.0000000000
 F 1 
   1       0.5234453280      1.0000000000
 F 1 
   1       0.2908029600      1.0000000000
 F 1 
   1       0.1615572000      1.0000000000
 F 1 
   1       0.0897540000      1.0000000000
 G 1 
   1     136.3487739404      1.0000000000
 G 1 
   1      75.7493188558      1.0000000000
 G 1 
   1      42.0829549199      1.0000000000
 G 1 
   1      23.3794193999      1.0000000000
 G 1 
   1      12.9885663333      1.0000000000
 G 1 
   1       7.2158701852      1.0000000000
 G 1 
   1       4.0088167695      1.0000000000
 G 1 
   1       2.2271204275      1.0000000000
 G 1 
   1       1.2372891264      1.0000000000
 G 1 
   1       0.6873828480      1.0000000000
 G 1 
   1       0.3818793600      1.0000000000
 G 1 
   1       0.2121552000      1.0000000000
 G 1 
   1       0.1178640000      1.0000000000
 H 1 
   1       5.8747580812      1.0000000000
 H 1 
   1       2.5542426440      1.0000000000
 H 1 
   1       1.1105402800      1.0000000000
 H 1 
   1       0.4828436000      1.0000000000
 H 1 
   1       0.2099320000      1.0000000000
  end;

----------------------------------
AUXILIARY/JK BASIS SET INFORMATION
----------------------------------
There are 4 groups of distinct atoms

 Group   1 Type Cu  : 23s20p18d17f13g5h contracted to 23s20p18d17f13g5h pattern {11111111111111111111111/11111111111111111111/111111111111111111/11111111111111111/1111111111111/11111}
 Group   2 Type S   : 20s17p16d7f contracted to 20s17p16d7f pattern {11111111111111111111/11111111111111111/1111111111111111/1111111}
 Group   3 Type C   : 17s14p13d4f contracted to 17s14p13d4f pattern {11111111111111111/11111111111111/1111111111111/1111}
 Group   4 Type H   : 12s5p4d3f contracted to 12s5p4d3f pattern {111111111111/11111/1111/111}

Atom   0Cu   basis set group =>   1
Atom   1S    basis set group =>   2
Atom   2C    basis set group =>   3
Atom   3S    basis set group =>   2
Atom   4C    basis set group =>   3
Atom   5S    basis set group =>   2
Atom   6C    basis set group =>   3
Atom   7S    basis set group =>   2
Atom   8C    basis set group =>   3
Atom   9C    basis set group =>   3
Atom  10C    basis set group =>   3
Atom  11C    basis set group =>   3
Atom  12H    basis set group =>   4
Atom  13C    basis set group =>   3
Atom  14H    basis set group =>   4
Atom  15H    basis set group =>   4
Atom  16H    basis set group =>   4
Atom  17C    basis set group =>   3
Atom  18C    basis set group =>   3
Atom  19C    basis set group =>   3
Atom  20H    basis set group =>   4
Atom  21C    basis set group =>   3
Atom  22H    basis set group =>   4
Atom  23H    basis set group =>   4
Atom  24H    basis set group =>   4

--------------------------------------
AUXILIARY/JK BASIS SET IN INPUT FORMAT
--------------------------------------

 # Auxiliary/JK basis set for element : H 
 NewAuxJKGTO H 
 S 1 
   1      35.9414656527      1.0000000000
 S 1 
   1      19.9674809182      1.0000000000
 S 1 
   1      11.0930449545      1.0000000000
 S 1 
   1       6.1628027525      1.0000000000
 S 1 
   1       3.4237793070      1.0000000000
 S 1 
   1       1.9020996150      1.0000000000
 S 1 
   1       1.0567220083      1.0000000000
 S 1 
   1       0.5870677824      1.0000000000
 S 1 
   1       0.3261487680      1.0000000000
 S 1 
   1       0.1811937600      1.0000000000
 S 1 
   1       0.1006632000      1.0000000000
 S 1 
   1       0.0559240000      1.0000000000
 P 1 
   1       2.0286240000      1.0000000000
 P 1 
   1       1.0143120000      1.0000000000
 P 1 
   1       0.5071560000      1.0000000000
 P 1 
   1       0.2535780000      1.0000000000
 P 1 
   1       0.1267890000      1.0000000000
 D 1 
   1       2.1046197920      1.0000000000
 D 1 
   1       0.9566453600      1.0000000000
 D 1 
   1       0.4348388000      1.0000000000
 D 1 
   1       0.1976540000      1.0000000000
 F 1 
   1       1.8869562800      1.0000000000
 F 1 
   1       0.8577074000      1.0000000000
 F 1 
   1       0.3898670000      1.0000000000
  end;

 # Auxiliary/JK basis set for element : C 
 NewAuxJKGTO C 
 S 1 
   1     556.1930524224      1.0000000000
 S 1 
   1     308.9961402347      1.0000000000
 S 1 
   1     171.6645223526      1.0000000000
 S 1 
   1      95.3691790848      1.0000000000
 S 1 
   1      52.9828772693      1.0000000000
 S 1 
   1      29.4349318163      1.0000000000
 S 1 
   1      16.3527398979      1.0000000000
 S 1 
   1       9.0848554989      1.0000000000
 S 1 
   1       5.0471419438      1.0000000000
 S 1 
   1       2.8039677466      1.0000000000
 S 1 
   1       1.5577598592      1.0000000000
 S 1 
   1       0.8654221440      1.0000000000
 S 1 
   1       0.4807900800      1.0000000000
 S 1 
   1       0.2671056000      1.0000000000
 S 1 
   1       0.1483920000      1.0000000000
 S 1 
   1       0.0824400000      1.0000000000
 S 1 
   1       0.0458000000      1.0000000000
 P 1 
   1      95.3691790848      1.0000000000
 P 1 
   1      52.9828772693      1.0000000000
 P 1 
   1      29.4349318163      1.0000000000
 P 1 
   1      16.3527398979      1.0000000000
 P 1 
   1       9.0848554989      1.0000000000
 P 1 
   1       5.0471419438      1.0000000000
 P 1 
   1       2.8039677466      1.0000000000
 P 1 
   1       1.5577598592      1.0000000000
 P 1 
   1       0.8654221440      1.0000000000
 P 1 
   1       0.4807900800      1.0000000000
 P 1 
   1       0.2671056000      1.0000000000
 P 1 
   1       0.1483920000      1.0000000000
 P 1 
   1       0.0824400000      1.0000000000
 P 1 
   1       0.0458000000      1.0000000000
 D 1 
   1      52.9828772693      1.0000000000
 D 1 
   1      29.4349318163      1.0000000000
 D 1 
   1      16.3527398979      1.0000000000
 D 1 
   1       9.0848554989      1.0000000000
 D 1 
   1       5.0471419438      1.0000000000
 D 1 
   1       2.8039677466      1.0000000000
 D 1 
   1       1.5577598592      1.0000000000
 D 1 
   1       0.8654221440      1.0000000000
 D 1 
   1       0.4807900800      1.0000000000
 D 1 
   1       0.2671056000      1.0000000000
 D 1 
   1       0.1483920000      1.0000000000
 D 1 
   1       0.0824400000      1.0000000000
 D 1 
   1       0.0458000000      1.0000000000
[...]
 Orientation: 
  X       0.1538763    0.9541421   -0.2567778
  Y       0.4856860   -0.2993493   -0.8212789
  Z      -0.8604831    0.0016620   -0.5094763

Note: Tensor is right-handed


 Quadrupole tensor eigenvalues (in MHz;Q= 0.0029 I=  1.0)
  e**2qQ            =     0.211985 MHz 
  e**2qQ/(4I*(2I-1))=     0.052996 MHz 
  eta               =     0.092991
  NOTE: the diagonal representation of the SH term I*Q*I = e**2qQ/(4I(2I-1))*[-(1-eta),-(1+eta),2]

 RHO(0)=      0.476725564 a.u.**-3

 -----------------------------------------------------------
 Nucleus  16H : A:ISTP=    1 I=  0.5 P=533.5514 MHz/au**3
                Q:ISTP=    2 I=  1.0 Q=  0.0029 barn     
 -----------------------------------------------------------
 Solving for nuclear perturbation:
Forming RHS of the CP-SCF equations         ... 
Calc. nucleus orbit integrals (SHARK)       ... done

Forming final perturbed densities           ... done
Transforming perturbed density to AO basis  ... done

 Raw HFC matrix (all values in MHz): 
 -----------------------------------
                 0.6050               0.3296              -0.0337
                 0.3273               1.4010              -0.1025
                -0.0308              -0.0976               0.6797

 A(FC)           0.8947               0.8947               0.8947
 A(SD)          -0.3991              -0.2272               0.6263
 A(ORB+DIA)     -0.0087              -0.0007               0.0109    A(PC) =   0.0005
 A(ORB)         -0.0087              -0.0006               0.0108    A(PC) =   0.0005
 A(DIA)         -0.0001              -0.0001               0.0002    A(PC) =  -0.0000
             ----------           ----------           ----------
 A(Tot)          0.4869               0.6668               1.5320    A(iso)=    0.8952
 Orientation: 
  X           0.9400685            0.0580820           -0.3360025
  Y          -0.3405872            0.1123210           -0.9334797
  Z          -0.0164783            0.9919730            0.1253714

Notes:  (1) The A matrix conforms to the "SAI" spin Hamiltonian convention.
        (2) Tensor is right-handed.

 Raw EFG matrix (all values in a.u.**-3):
 -----------------------------------
            -0.1396       0.1052      -0.0600
             0.1052       0.1637      -0.1920
            -0.0600      -0.1920      -0.0241

 V(El)       0.6074       0.8355      -1.4429
 V(Nuc)     -0.7505      -1.0081       1.7586
         ----------   ----------   ----------
 V(Tot)     -0.1432      -0.1725       0.3157 
 Orientation: 
  X       0.1538763    0.9541421    0.2567778
  Y       0.4856860   -0.2993493    0.8212789
  Z       0.8604831   -0.0016620   -0.5094763

Note: Tensor is right-handed


 Quadrupole tensor eigenvalues (in MHz;Q= 0.0029 I=  1.0)
  e**2qQ            =     0.211985 MHz 
  e**2qQ/(4I*(2I-1))=     0.052996 MHz 
  eta               =     0.092991
  NOTE: the diagonal representation of the SH term I*Q*I = e**2qQ/(4I(2I-1))*[-(1-eta),-(1+eta),2]

 RHO(0)=      0.476725564 a.u.**-3

 -----------------------------------------------------------
 Nucleus  20H : A:ISTP=    1 I=  0.5 P=533.5514 MHz/au**3
                Q:ISTP=    2 I=  1.0 Q=  0.0029 barn     
 -----------------------------------------------------------
 Solving for nuclear perturbation:
Forming RHS of the CP-SCF equations         ... 
Calc. nucleus orbit integrals (SHARK)       ... done

Forming final perturbed densities           ... done
Transforming perturbed density to AO basis  ... done

 Raw HFC matrix (all values in MHz): 
 -----------------------------------
                 0.1195               0.9042              -0.2369
                 0.8972               2.5969              -0.8918
                -0.2375              -0.8894               0.7821

 A(FC)           1.1734               1.1734               1.1734
 A(SD)          -1.3328              -0.7243               2.0571
 A(ORB+DIA)     -0.0176              -0.0088               0.0046    A(PC) =  -0.0072
 A(ORB)         -0.0172              -0.0083               0.0043    A(PC) =  -0.0071
 A(DIA)         -0.0003              -0.0004               0.0004    A(PC) =  -0.0001
             ----------           ----------           ----------
 A(Tot)         -0.1770               0.4404               3.2351    A(iso)=    1.1662
 Orientation: 
  X           0.9416640            0.1785207           -0.2853057
  Y          -0.3290886            0.3108443           -0.8916706
  Z          -0.0704960            0.9335450            0.3514600

Notes:  (1) The A matrix conforms to the "SAI" spin Hamiltonian convention.
        (2) Tensor is right-handed.

 Raw EFG matrix (all values in a.u.**-3):
 -----------------------------------
            -0.1679       0.0072       0.0016
             0.0072      -0.1477      -0.0016
             0.0016      -0.0016       0.3155

 V(El)       0.3268       0.9607      -1.2874
 V(Nuc)     -0.4721      -1.1308       1.6030
         ----------   ----------   ----------
 V(Tot)     -0.1454      -0.1702       0.3156 
 Orientation: 
  X       0.3044750   -0.9525146    0.0033038
  Y       0.9525178    0.3044643   -0.0033745
  Z       0.0022084    0.0041743    0.9999888

Note: Tensor is right-handed


 Quadrupole tensor eigenvalues (in MHz;Q= 0.0029 I=  1.0)
  e**2qQ            =     0.211893 MHz 
  e**2qQ/(4I*(2I-1))=     0.052973 MHz 
  eta               =     0.078494
  NOTE: the diagonal representation of the SH term I*Q*I = e**2qQ/(4I(2I-1))*[-(1-eta),-(1+eta),2]

 RHO(0)=      0.477212340 a.u.**-3

 -----------------------------------------------------------
 Nucleus  22H : A:ISTP=    1 I=  0.5 P=533.5514 MHz/au**3
                Q:ISTP=    2 I=  1.0 Q=  0.0029 barn     
 -----------------------------------------------------------
 Solving for nuclear perturbation:
Forming RHS of the CP-SCF equations         ... 
Calc. nucleus orbit integrals (SHARK)       ... done

Forming final perturbed densities           ... done
Transforming perturbed density to AO basis  ... done

 Raw HFC matrix (all values in MHz): 
 -----------------------------------
                 0.1202               0.9038               0.2376
                 0.8980               2.5973               0.8921
                 0.2377               0.8884               0.7822

 A(FC)           1.1734               1.1734               1.1734
 A(SD)          -1.3328              -0.7243               2.0571
 A(ORB+DIA)     -0.0169              -0.0086               0.0049    A(PC) =  -0.0068
 A(ORB)         -0.0166              -0.0081               0.0046    A(PC) =  -0.0067
 A(DIA)         -0.0003              -0.0004               0.0004    A(PC) =  -0.0001
             ----------           ----------           ----------
 A(Tot)         -0.1763               0.4406               3.2354    A(iso)=    1.1666
 Orientation: 
  X           0.9415190            0.1793151            0.2852860
  Y          -0.3293404            0.3106759            0.8916364
  Z           0.0712524           -0.9334488            0.3515629

Notes:  (1) The A matrix conforms to the "SAI" spin Hamiltonian convention.
        (2) Tensor is right-handed.

 Raw EFG matrix (all values in a.u.**-3):
 -----------------------------------
            -0.1679       0.0072      -0.0016
             0.0072      -0.1477       0.0016
            -0.0016       0.0016       0.3155

 V(El)       0.3268       0.9607      -1.2874
 V(Nuc)     -0.4721      -1.1308       1.6030
         ----------   ----------   ----------
 V(Tot)     -0.1454      -0.1702       0.3156 
 Orientation: 
  X       0.3044750   -0.9525146   -0.0033038
  Y       0.9525178    0.3044643    0.0033745
  Z      -0.0022084   -0.0041743    0.9999888

Note: Tensor is right-handed


 Quadrupole tensor eigenvalues (in MHz;Q= 0.0029 I=  1.0)
  e**2qQ            =     0.211893 MHz 
  e**2qQ/(4I*(2I-1))=     0.052973 MHz 
  eta               =     0.078494
  NOTE: the diagonal representation of the SH term I*Q*I = e**2qQ/(4I(2I-1))*[-(1-eta),-(1+eta),2]

 RHO(0)=      0.477212340 a.u.**-3

 -----------------------------------------------------------
 Nucleus  23H : A:ISTP=    1 I=  0.5 P=533.5514 MHz/au**3
                Q:ISTP=    2 I=  1.0 Q=  0.0029 barn     
 -----------------------------------------------------------
 Solving for nuclear perturbation:
Forming RHS of the CP-SCF equations         ... 
Calc. nucleus orbit integrals (SHARK)       ... done

Forming final perturbed densities           ... done
Transforming perturbed density to AO basis  ... done

 Raw HFC matrix (all values in MHz): 
 -----------------------------------
                 0.6050               0.3296              -0.0337
                 0.3273               1.4010              -0.1025
                -0.0307              -0.0976               0.6797

 A(FC)           0.8947               0.8947               0.8947
 A(SD)          -0.3991              -0.2272               0.6263
 A(ORB+DIA)     -0.0088              -0.0007               0.0109    A(PC) =   0.0005
 A(ORB)         -0.0087              -0.0006               0.0108    A(PC) =   0.0005
 A(DIA)         -0.0001              -0.0001               0.0002    A(PC) =  -0.0000
             ----------           ----------           ----------
 A(Tot)          0.4869               0.6668               1.5319    A(iso)=    0.8952
 Orientation: 
  X           0.9400580            0.0582890           -0.3359960
  Y          -0.3406053            0.1122349           -0.9334834
  Z          -0.0167013            0.9919706            0.1253608

Notes:  (1) The A matrix conforms to the "SAI" spin Hamiltonian convention.
        (2) Tensor is right-handed.

 Raw EFG matrix (all values in a.u.**-3):
 -----------------------------------
            -0.1396       0.1052      -0.0600
             0.1052       0.1637      -0.1920
            -0.0600      -0.1920      -0.0241

 V(El)       0.6074       0.8355      -1.4429
 V(Nuc)     -0.7505      -1.0081       1.7586
         ----------   ----------   ----------
 V(Tot)     -0.1432      -0.1725       0.3157 
 Orientation: 
  X       0.1538763    0.9541421    0.2567778
  Y       0.4856860   -0.2993493    0.8212789
  Z       0.8604831   -0.0016620   -0.5094763

Note: Tensor is right-handed


 Quadrupole tensor eigenvalues (in MHz;Q= 0.0029 I=  1.0)
  e**2qQ            =     0.211985 MHz 
  e**2qQ/(4I*(2I-1))=     0.052996 MHz 
  eta               =     0.092991
  NOTE: the diagonal representation of the SH term I*Q*I = e**2qQ/(4I(2I-1))*[-(1-eta),-(1+eta),2]

 RHO(0)=      0.476725564 a.u.**-3

 -----------------------------------------------------------
 Nucleus  24H : A:ISTP=    1 I=  0.5 P=533.5514 MHz/au**3
                Q:ISTP=    2 I=  1.0 Q=  0.0029 barn     
 -----------------------------------------------------------
 Solving for nuclear perturbation:
Forming RHS of the CP-SCF equations         ... 
Calc. nucleus orbit integrals (SHARK)       ... done

Forming final perturbed densities           ... done
Transforming perturbed density to AO basis  ... done

 Raw HFC matrix (all values in MHz): 
 -----------------------------------
                 0.6052               0.3296               0.0340
                 0.3275               1.4010               0.1024
                 0.0307               0.0973               0.6797

 A(FC)           0.8947               0.8947               0.8947
 A(SD)          -0.3991              -0.2272               0.6263
 A(ORB+DIA)     -0.0086              -0.0007               0.0110    A(PC) =   0.0005
 A(ORB)         -0.0085              -0.0006               0.0108    A(PC) =   0.0006
 A(DIA)         -0.0001              -0.0001               0.0002    A(PC) =  -0.0000
             ----------           ----------           ----------
 A(Tot)          0.4871               0.6668               1.5320    A(iso)=    0.8953
 Orientation: 
  X           0.9401444            0.0565642            0.3360491
  Y          -0.3404516            0.1128671            0.9334633
  Z           0.0148717           -0.9919987            0.1253688

Notes:  (1) The A matrix conforms to the "SAI" spin Hamiltonian convention.
        (2) Tensor is right-handed.

 Raw EFG matrix (all values in a.u.**-3):
 -----------------------------------
            -0.1396       0.1052       0.0600
             0.1052       0.1637       0.1920
             0.0600       0.1920      -0.0241

 V(El)       0.6074       0.8355      -1.4429
 V(Nuc)     -0.7505      -1.0081       1.7586
         ----------   ----------   ----------
 V(Tot)     -0.1432      -0.1725       0.3157 
 Orientation: 
  X       0.1538763    0.9541421   -0.2567778
  Y       0.4856860   -0.2993493   -0.8212789
  Z      -0.8604831    0.0016620   -0.5094763

Note: Tensor is right-handed


 Quadrupole tensor eigenvalues (in MHz;Q= 0.0029 I=  1.0)
  e**2qQ            =     0.211985 MHz 
  e**2qQ/(4I*(2I-1))=     0.052996 MHz 
  eta               =     0.092991
  NOTE: the diagonal representation of the SH term I*Q*I = e**2qQ/(4I(2I-1))*[-(1-eta),-(1+eta),2]

 RHO(0)=      0.476725564 a.u.**-3

 -----------------------------------------------------------
 Nucleus   0Cu: A:ISTP=   63 I=  1.5 P=141.6005 MHz/au**3
                Q:ISTP=   63 I=  1.5 Q= -0.2200 barn     
 -----------------------------------------------------------
 Solving for nuclear perturbation:
Forming RHS of the CP-SCF equations         ... 
Calc. nucleus orbit integrals (SHARK)       ... done

Forming final perturbed densities           ... done
Transforming perturbed density to AO basis  ... done

 Raw HFC matrix (all values in MHz): 
 -----------------------------------
              -146.7627             171.0985               0.2624
               172.0754              95.5834               1.2635
                -0.9177              -1.5570             187.4147

 A(FC)          -2.3593              -2.3593              -2.3593
 A(SD)         162.8781             163.0180            -325.8960
 A(ORB+DIA)     24.4900              26.2170              92.6063    A(PC) =  47.7711
 A(ORB)         24.4899              26.2174              92.6076    A(PC) =  47.7716
 A(DIA)          0.0001              -0.0005              -0.0013    A(PC) =  -0.0006
             ----------           ----------           ----------
 A(Tot)        185.0087             186.8756            -235.6490    A(iso)=   45.4118
 Orientation: 
  X           0.4309452            0.1589989            0.8882599
  Y           0.8327366            0.3091215           -0.4593405
  Z          -0.3476149            0.9376371            0.0008102

Notes:  (1) The A matrix conforms to the "SAI" spin Hamiltonian convention.
        (2) Tensor is right-handed.

 Raw EFG matrix (all values in a.u.**-3):
 -----------------------------------
            -1.3620       1.0405       0.0000
             1.0405       0.1894       0.0000
             0.0000       0.0000       1.1726

 V(El)      -0.0074       0.9692      -0.9619
 V(Nuc)      0.7189       0.2034      -0.9222
         ----------   ----------   ----------
 V(Tot)      0.7115       1.1726      -1.8841 
 Orientation: 
  X       0.4484939    0.0000000    0.8937859
  Y       0.8937859    0.0000000   -0.4484939
  Z      -0.0000000    1.0000000   -0.0000000

Note: Tensor is right-handed


 Quadrupole tensor eigenvalues (in MHz;Q=-0.2200 I=  1.5)
  e**2qQ            =    97.392689 MHz 
  e**2qQ/(4I*(2I-1))=     8.116057 MHz 
  eta               =     0.244735
  NOTE: the diagonal representation of the SH term I*Q*I = e**2qQ/(4I(2I-1))*[-(1-eta),-(1+eta),2]

 RHO(0)=  37602.097346439 a.u.**-3


--------------------------------------------------------------------------------
----------------------------------------------------------------------------
                           ORCA EULER ANGLE PROGRAM
----------------------------------------------------------------------------

Only g-tensor available        -->  using g-tensor as reference tensor

Reference tensor               ...  g

g-tensor ordering              ...  |g_min> --> |gx>
                                    |g_mid> --> |gy>
                                    |g_max> --> |gz>

A- and EFG-tensor ordering     ...  the axes |Ax>, |Qx>, |Ay>, etc. are assigned
                                    such that the Euler rotation is minimal. You
                                    can find the respective eigenvalues as Ax,
                                    EFGx, Ay, etc. in the tables below.
                                    The relation of |Ax>, |Ay>,  etc. to Amin, Amid, etc.
                                    (as printed in the ORCA EPR/NMR CALCULATION Output)
                                    is obtained in the detailed printout.

Euler rotation around          ...  z - y - z
   First rotation              -->  by alpha around z
   Second rotation             -->  by beta around y'
   Third rotation              -->  by gamma around z''
   Positive / Negative angle   -->  clockwise / counterclockwise rotation

Plot EFG-tensors                    (-)
Plot HFC-tensors                    (-)
Detailed Printout                   (-)

-------------------------------------------------------------------------
          Euler rotation of hyperfine tensor to g-tensor
-------------------------------------------------------------------------

-------------------------------------------------------------------
 Atom  |   Alpha    Beta    Gamma   |   Ax       Ay       Az 
       |          [degrees]         |           [MHz]         
-------------------------------------------------------------------
 12H       48.5      4.9    -29.1       0.44     3.24    -0.18
 14H      127.8      4.4   -149.8       0.44     3.24    -0.18
 15H       62.7      2.0    -56.8       0.67     1.53     0.49
 16H      104.5      1.8   -113.0       0.67     1.53     0.49
 20H      127.7      4.4   -149.7       0.44     3.24    -0.18
 22H       48.4      4.9    -29.0       0.44     3.24    -0.18
 23H      104.8      1.8   -113.4       0.67     1.53     0.49
 24H       63.0      2.0    -57.1       0.67     1.53     0.49
  0Cu    -107.1      5.8     85.4     186.88   185.01  -235.65
-------------------------------------------------------------------


-------------------------------------------------------------------------------
    Euler rotation of Electric Field Gradient (EFG) tensor to g-tensor
-------------------------------------------------------------------------------

-------------------------------------------------------------------
 Atom  |   Alpha    Beta    Gamma  |   EFGx     EFGy     EFGz
       |          [degrees]        |         [a.u.**-3]       
-------------------------------------------------------------------
 12H       82.2      3.9    -83.6      0.32    -0.15    -0.17
 14H       89.5      3.9    -90.7      0.32    -0.15    -0.17
 15H      115.4      4.2    -86.1     -0.14     0.32    -0.17
 16H       56.8      4.2    -88.7     -0.14     0.32    -0.17
 20H       89.5      3.9    -90.7      0.32    -0.15    -0.17
 22H       82.2      3.9    -83.6      0.32    -0.15    -0.17
 23H       56.8      4.2    -88.7     -0.14     0.32    -0.17
 24H      115.4      4.2    -86.1     -0.14     0.32    -0.17
  0Cu     -86.8      5.1     85.5      1.17     0.71    -1.88
-------------------------------------------------------------------


Maximum memory used throughout the entire EPRNMR-calculation: 587.3 MB

Timings for individual modules:

Sum of individual times         ...    21934.166 sec (= 365.569 min)
GTO integral calculation        ...       17.007 sec (=   0.283 min)   0.1 %
Spin-Orbit-Coupling Matrices    ...      239.318 sec (=   3.989 min)   1.1 %
SCF iterations                  ...      669.474 sec (=  11.158 min)   3.1 %
EPR/NMR calculation             ...    21008.366 sec (= 350.139 min)  95.8 %
                             ****ORCA TERMINATED NORMALLY****
TOTAL RUN TIME: 0 days 6 hours 7 minutes 3 seconds 599 msec
