
                                 *****************
                                 * O   R   C   A *
                                 *****************

                                            #,                                       
                                            ###                                      
                                            ####                                     
                                            #####                                    
                                            ######                                   
                                           ########,                                 
                                     ,,################,,,,,                         
                               ,,#################################,,                 
                          ,,##########################################,,             
                       ,#########################################, ''#####,          
                    ,#############################################,,   '####,        
                  ,##################################################,,,,####,       
                ,###########''''           ''''###############################       
              ,#####''   ,,,,##########,,,,          '''####'''          '####       
            ,##' ,,,,###########################,,,                        '##       
           ' ,,###''''                  '''############,,,                           
         ,,##''                                '''############,,,,        ,,,,,,###''
      ,#''                                            '''#######################'''  
     '                                                          ''''####''''         
             ,#######,   #######,   ,#######,      ##                                
            ,#'     '#,  ##    ##  ,#'     '#,    #''#        ######   ,####,        
            ##       ##  ##   ,#'  ##            #'  '#       #        #'  '#        
            ##       ##  #######   ##           ,######,      #####,   #    #        
            '#,     ,#'  ##    ##  '#,     ,#' ,#      #,         ##   #,  ,#        
             '#######'   ##     ##  '#######'  #'      '#     #####' # '####'        



                  #######################################################
                  #                        -***-                        #
                  #          Department of theory and spectroscopy      #
                  #    Directorship and core code : Frank Neese         #
                  #        Max Planck Institute fuer Kohlenforschung    #
                  #                Kaiser Wilhelm Platz 1               #
                  #                 D-45470 Muelheim/Ruhr               #
                  #                      Germany                        #
                  #                                                     #
                  #                  All rights reserved                #
                  #                        -***-                        #
                  #######################################################


                         Program Version 5.0.4 -  RELEASE  -


 With contributions from (in alphabetic order):
   Daniel Aravena         : Magnetic Suceptibility
   Michael Atanasov       : Ab Initio Ligand Field Theory (pilot matlab implementation)
   Alexander A. Auer      : GIAO ZORA, VPT2 properties, NMR spectrum
   Ute Becker             : Parallelization
   Giovanni Bistoni       : ED, misc. LED, open-shell LED, HFLD
   Martin Brehm           : Molecular dynamics
   Dmytro Bykov           : SCF Hessian
   Vijay G. Chilkuri      : MRCI spin determinant printing, contributions to CSF-ICE
   Dipayan Datta          : RHF DLPNO-CCSD density
   Achintya Kumar Dutta   : EOM-CC, STEOM-CC
   Dmitry Ganyushin       : Spin-Orbit,Spin-Spin,Magnetic field MRCI
   Miquel Garcia          : C-PCM and meta-GGA Hessian, CC/C-PCM, Gaussian charge scheme
   Yang Guo               : DLPNO-NEVPT2, F12-NEVPT2, CIM, IAO-localization
   Andreas Hansen         : Spin unrestricted coupled pair/coupled cluster methods
   Benjamin Helmich-Paris : MC-RPA, TRAH-SCF, COSX integrals
   Lee Huntington         : MR-EOM, pCC
   Robert Izsak           : Overlap fitted RIJCOSX, COSX-SCS-MP3, EOM
   Marcus Kettner         : VPT2
   Christian Kollmar      : KDIIS, OOCD, Brueckner-CCSD(T), CCSD density, CASPT2, CASPT2-K
   Simone Kossmann        : Meta GGA functionals, TD-DFT gradient, OOMP2, MP2 Hessian
   Martin Krupicka        : Initial AUTO-CI
   Lucas Lang             : DCDCAS
   Marvin Lechner         : AUTO-CI (C++ implementation), FIC-MRCC
   Dagmar Lenk            : GEPOL surface, SMD
   Dimitrios Liakos       : Extrapolation schemes; Compound Job, initial MDCI parallelization
   Dimitrios Manganas     : Further ROCIS development; embedding schemes
   Dimitrios Pantazis     : SARC Basis sets
   Anastasios Papadopoulos: AUTO-CI, single reference methods and gradients
   Taras Petrenko         : DFT Hessian,TD-DFT gradient, ASA, ECA, R-Raman, ABS, FL, XAS/XES, NRVS
   Peter Pinski           : DLPNO-MP2, DLPNO-MP2 Gradient
   Christoph Reimann      : Effective Core Potentials
   Marius Retegan         : Local ZFS, SOC
   Christoph Riplinger    : Optimizer, TS searches, QM/MM, DLPNO-CCSD(T), (RO)-DLPNO pert. Triples
   Tobias Risthaus        : Range-separated hybrids, TD-DFT gradient, RPA, STAB
   Michael Roemelt        : Original ROCIS implementation
   Masaaki Saitow         : Open-shell DLPNO-CCSD energy and density
   Barbara Sandhoefer     : DKH picture change effects
   Avijit Sen             : IP-ROCIS
   Kantharuban Sivalingam : CASSCF convergence, NEVPT2, FIC-MRCI
   Bernardo de Souza      : ESD, SOC TD-DFT
   Georgi Stoychev        : AutoAux, RI-MP2 NMR, DLPNO-MP2 response
   Willem Van den Heuvel  : Paramagnetic NMR
   Boris Wezisla          : Elementary symmetry handling
   Frank Wennmohs         : Technical directorship


 We gratefully acknowledge several colleagues who have allowed us to
 interface, adapt or use parts of their codes:
   Stefan Grimme, W. Hujo, H. Kruse, P. Pracht,  : VdW corrections, initial TS optimization,
                  C. Bannwarth, S. Ehlert          DFT functionals, gCP, sTDA/sTD-DF
   Ed Valeev, F. Pavosevic, A. Kumar             : LibInt (2-el integral package), F12 methods
   Garnet Chan, S. Sharma, J. Yang, R. Olivares  : DMRG
   Ulf Ekstrom                                   : XCFun DFT Library
   Mihaly Kallay                                 : mrcc  (arbitrary order and MRCC methods)
   Jiri Pittner, Ondrej Demel                    : Mk-CCSD
   Frank Weinhold                                : gennbo (NPA and NBO analysis)
   Christopher J. Cramer and Donald G. Truhlar   : smd solvation model
   Lars Goerigk                                  : TD-DFT with DH, B97 family of functionals
   V. Asgeirsson, H. Jonsson                     : NEB implementation
   FAccTs GmbH                                   : IRC, NEB, NEB-TS, DLPNO-Multilevel, CI-OPT
                                                   MM, QMMM, 2- and 3-layer-ONIOM, Crystal-QMMM,
                                                   LR-CPCM, SF, NACMEs, symmetry and pop. for TD-DFT,
                                                   nearIR, NL-DFT gradient (VV10), updates on ESD,
                                                   ML-optimized integration grids
   S Lehtola, MJT Oliveira, MAL Marques          : LibXC Library
   Liviu Ungur et al                             : ANISO software


 Your calculation uses the libint2 library for the computation of 2-el integrals
 For citations please refer to: http://libint.valeyev.net

 Your ORCA version has been built with support for libXC version: 5.1.0
 For citations please refer to: https://tddft.org/programs/libxc/

 This ORCA versions uses:
   CBLAS   interface :  Fast vector & matrix operations
   LAPACKE interface :  Fast linear algebra routines
   SCALAPACK package :  Parallel linear algebra routines
   Shared memory     :  Shared parallel matrices
   BLAS/LAPACK       :  OpenBLAS 0.3.15  USE64BITINT DYNAMIC_ARCH NO_AFFINITY Prescott SINGLE_THREADED
        Core in use  :  Prescott
   Copyright (c) 2011-2014, The OpenBLAS Project


XCFun DFT library Copyright 2009-2010 Ulf Ekstrom and contributors.
See http://admol.org/xcfun for more information.
This is free software; see the source code for copying conditions.
There is ABSOLUTELY NO WARRANTY; not even for MERCHANTABILITY or FITNESS FOR A PARTICULAR PURPOSE.
For details see the documentation.
Scientific users of this library should cite U. Ekstrom, L. Visscher, R. Bast, A. J. Thorvaldsen and K. Ruud;
J.Chem.Theor.Comp. 2010, DOI: 10.1021/ct100117s
XCFun Version 0.99 

================================================================================

----- Orbital basis set information -----
Your calculation utilizes the basis: ANO-RCC-DZP
   H, He:       P.-O. Widmark, P.-A. Malmqvist, and B. O. Roos, Theor. Chim. Acta 77, 291 (1990).
   s block:     B. O. Roos, V. Veryazov and P.-O. Widmark, Theor. Chem. Acc. 111, 345 (2004).
   p block:     B. O. Roos, R. Lindh, P.-A. Malmqvist, V. Veryazov, and P.-O. Widmark, J. Phys. Chem. A 108, 2851 (2004).
   d block:     B. O. Roos, R. Lindh, P.-A. Malmqvist, V. Veryazov, and P.-O. Widmark, J. Phys. Chem. A 109, 6575 (2005).
   actinides:   B. O. Roos, R. Lindh, P.-A. Malmqvist, V. Veryazov, and P.-O. Widmark, Chem. Phys. Letters 409, 295 (2005).
   lanthanides: B. O. Roos, R. Lindh, P.-A. Malmqvist, V. Veryazov, P.-O. Widmark and A. C. Borin, J. Phys. Chem. A 112, 11431 (2008).

The basis set includes element-specific modifications.

Your calculation utilizes the basis: ANO-RCC-TZP
   H, He:       P.-O. Widmark, P.-A. Malmqvist, and B. O. Roos, Theor. Chim. Acta 77, 291 (1990).
   s block:     B. O. Roos, V. Veryazov and P.-O. Widmark, Theor. Chem. Acc. 111, 345 (2004).
   p block:     B. O. Roos, R. Lindh, P.-A. Malmqvist, V. Veryazov, and P.-O. Widmark, J. Phys. Chem. A 108, 2851 (2004).
   d block:     B. O. Roos, R. Lindh, P.-A. Malmqvist, V. Veryazov, and P.-O. Widmark, J. Phys. Chem. A 109, 6575 (2005).
   actinides:   B. O. Roos, R. Lindh, P.-A. Malmqvist, V. Veryazov, and P.-O. Widmark, Chem. Phys. Letters 409, 295 (2005).
   lanthanides: B. O. Roos, R. Lindh, P.-A. Malmqvist, V. Veryazov, P.-O. Widmark and A. C. Borin, J. Phys. Chem. A 112, 11431 (2008).

----- AuxJ basis set information -----
Your calculation utilizes the AutoAux generation procedure.
  G. L. Stoychev, A. A. Auer, F. Neese, J. Chem. Theory Comput. 13, 554 (2017)

----- AuxC basis set information -----
Your calculation utilizes the AutoAux generation procedure.
  G. L. Stoychev, A. A. Auer, F. Neese, J. Chem. Theory Comput. 13, 554 (2017)

----- AuxJK basis set information -----
Your calculation utilizes the AutoAux generation procedure.
  G. L. Stoychev, A. A. Auer, F. Neese, J. Chem. Theory Comput. 13, 554 (2017)

================================================================================
                                        WARNINGS
                       Please study these warnings very carefully!
================================================================================


Removing linear dependencies from the Orbital basis set:
  S-ok PCD(Thresh=Auto)-ok done ( 0.408 sec)
  Dim=475 Nullspace=0 Removed 0 shells / 0 basis functions

Removing linear dependencies from the AuxJ basis set:
  V-ok PCD(Thresh=Auto)-ok done (18.989 sec)
  Dim=3632 Nullspace=0 Removed 0 shells / 0 basis functions

Removing linear dependencies from the AuxC basis set:
  V-ok PCD(Thresh=Auto)-ok done (18.603 sec)
  Dim=3632 Nullspace=0 Removed 0 shells / 0 basis functions

Removing linear dependencies from the AuxJK basis set:
  V-ok PCD(Thresh=Auto)-ok done (18.579 sec)
  Dim=3632 Nullspace=0 Removed 0 shells / 0 basis functions


WARNING: Found flag for RIJCOSX approximation but no HF exchange needed!
  ===> : RIJCOSX  will be disabled and Split-RI-J is turned on

WARNING: your system is open-shell and RHF/RKS was chosen
  ===> : WILL SWITCH to UHF/UKS


WARNING: Minnesota functionals are quite sensitive to the integration grid.
         see SE Wheeler, KN Houk, JCTC 2010, 6, 395,
             N Mardirossian, M Head-Gordon, JCTC 2016, 12, 4303.
         DEFGRID3 seems to be a minimum grid for reliable results with these functionals!
  ===> : Please increase the integration grid!


INFO   : the flag for use of the SHARK integral package has been found!

================================================================================
                                       INPUT FILE
================================================================================
NAME = input_47.inp
|  1> ! RIJCOSX nofrozencore ReducedPop printbasis
|  2> ! M06L ano-rcc-dzp autoaux
|  3> 
|  4> %maxcore 5000
|  5> %basis
|  6> PCDTrimBas overlap
|  7> PCDTrimAuxJ Coulomb
|  8> PCDTrimAuxJK Coulomb
|  9> PCDTrimAuxC Coulomb
| 10> PCDThresh -1
| 11> end
| 12> 
| 13> %basis
| 14> newgto Cu "ano-rcc-tzp" end
| 15> newgto S "ano-rcc-tzp" end
| 16> end
| 17> 
| 18> %pal
| 19> nprocs 4
| 20> end
| 21> 
| 22> % sym SymThresh 1e-2 end
| 23> * xyz -2 2 
| 24> Cu -1.2880036755786884e-07 9.906712933549285e-07 -4.450678419556881e-08
| 25> S -1.6444864867099709 -0.15246718870943557 1.6262598659382017
| 26> C -0.8021871683738215 0.13327396732895874 3.128482505256788
| 27> S -1.5558461310280463 -0.28845578264842575 -1.693636399361074
| 28> C -0.6318557071248816 -0.14181126243862238 -3.166508252581742
| 29> S 1.555637345632235 0.2900616608149541 1.6935642538638929
| 30> C 0.6336969083791214 0.12764961630011368 3.1671444770618176
| 31> S 1.6446951433054147 0.15086230121420058 -1.626187764947805
| 32> C 0.8003490583284032 -0.11913609730149055 -3.129117661574043
| 33> C 1.4890840897457034 -0.04707720256165284 -4.34899116464085
| 34> C -1.2546319203302947 -0.31599857513335206 -4.411275004156396
| 35> C -0.5293522538886483 -0.4099617517817963 -5.600170367287411
| 36> H -2.328152820101184 -0.47587144311373236 -4.4229490541317285
| 37> C 0.8285321133727116 -0.05335645290654773 -5.5786090015998955
| 38> H 2.562036951925633 0.11374338945844621 -4.31651025415174
| 39> H -1.0399963982514167 -0.6275168285926507 -6.539969020255608
| 40> H 1.3891128923450404 0.08683904598169714 -6.5045656825020055
| 41> C -1.490033579324645 0.05438038994030124 4.348662061842576
| 42> C 1.2555801219055607 0.30870529446763717 4.4116036618868275
| 43> C -0.8266468623927671 0.03885599718571165 5.5792604474001655
| 44> H -2.5625481605844698 -0.1098114150951205 4.316333606725268
| 45> C 0.5274668741083363 0.4244631981739257 5.599518876980356
| 46> H 2.328652925197717 0.4720247078775994 4.423122872759944
| 47> H -1.3847828424957511 -0.12015148872564609 6.506062246477849
| 48> H 1.0356706769997144 0.6607804687760329 6.538474594813157
| 49> * 
| 50> 
| 51> % eprnmr
| 52> gtensor true
| 53> Nuclei = all H {aiso,adip,aorb,fgrad,rho}
| 54> Nuclei = all Cu {aiso,adip,aorb,fgrad,rho}
| 55> end
| 56> 
| 57>                          ****END OF INPUT****
================================================================================

------------------------------------------------------------------------------
                            SYMMETRY HANDLING SETUP
------------------------------------------------------------------------------

------------------
SYMMETRY DETECTION
------------------
The point group will now be determined using a tolerance of 1.0000e-02.
Splitting atom subsets according to nuclear charge, mass and basis set.
Splitting atom subsets according to distance from the molecule's center.
Identifying relative distance patterns of the atoms.
Splitting atom subsets according to atoms' relative distance patterns.
Bring atoms of each subset into input order.
The molecule is neither linear nor planar.
The molecule does not have a center of inversion.
Analyzing the first atom subset for its symmetry.
The atoms of the selected subset form a disphenoid with scalene triangular faces.
Testing point group D2.
Test failed.
Testing point group C2.
Test failed.
Testing point group C2.
Test failed.
Testing point group C2.
Success!
This point group has been found:    C2
Largest non-degenerate subgroup:    C2


Mass-centered symmetry-perfected Cartesians (point group C2):

Atom          Symmetry-perfected Cartesians (x, y, z; au)
  0      -0.000000000000    0.000000000000   -0.000000005539
  1      -3.024529221861   -0.416812559416    3.140594437936
  2      -1.357202369944    0.006070602434    5.955740246629
  3      -3.024925470545   -0.413776002876   -3.140594449011
  4      -1.353709855318   -0.020693443885   -5.955740257690
  5       3.024529221861    0.416812559416    3.140594437936
  6       1.357202369944   -0.006070602434    5.955740246629
  7       3.024925470545    0.413776002876   -3.140594449011
  8       1.353709855318    0.020693443885   -5.955740257690
  9       2.593222898693    0.252875467149   -8.287319321668
 10      -2.593222898693   -0.252875467149   -8.287319321668
 11      -1.283287189399   -0.336521440233  -10.575262719473
 12      -4.621904582123   -0.555023121810   -8.267632154858
 13       1.283287189399    0.336521440233  -10.575262719473
 14       4.621904582123    0.555023121810   -8.267632154858
 15      -2.295622914235   -0.674276028078  -12.340291494975
 16       2.295622914235    0.674276028078  -12.340291494975
 17      -2.595024295826   -0.239070893235    8.287319310587
 18       2.595024295826    0.239070893235    8.287319310587
 19      -1.279707991552   -0.363949762574   10.575262708397
 20      -4.622864577391   -0.547666428830    8.267633088593
 21       1.279707991552    0.363949762574   10.575262708397
 22       4.622864577391    0.547666428830    8.267633088593
 23      -2.287406592019   -0.737239838369   12.340291483930
 24       2.287406592019    0.737239838369   12.340291483930


-----------------------------------------------
SYMMETRY-PERFECTED CARTESIAN COORDINATES (A.U.)
-----------------------------------------------
Warning (ORCA_SYM): Coordinates were not cleaned so far!

------------------
SYMMETRY REDUCTION
------------------
ORCA supports only abelian point groups.
It is now checked, if the determined point group is supported:
Point Group ( C2    ) is          ... supported

(Re)building abelian point group:
Creating Character Table          ... done
Making direct product table       ... done
Constructing symmetry operations  ... done
Creating atom transfer table      ... done
Creating asymmetric unit          ... done

---------------------
ASYMMETRIC UNIT IN C2
---------------------
  #  AT     MASS              COORDS (A.U.)             BAS
   0 Cu  63.5500  -0.00000000   0.00000000  -0.00000001   0
   1 S   32.0600  -3.02452922  -0.41681256   3.14059444   0
   2 C   12.0110  -1.35720237   0.00607060   5.95574025   0
   3 S   32.0600  -3.02492547  -0.41377600  -3.14059445   0
   4 C   12.0110  -1.35370986  -0.02069344  -5.95574026   0
   9 C   12.0110   2.59322290   0.25287547  -8.28731932   0
  11 C   12.0110  -1.28328719  -0.33652144 -10.57526272   0
  12 H    1.0080  -4.62190458  -0.55502312  -8.26763215   0
  15 H    1.0080  -2.29562291  -0.67427603 -12.34029149   0
  17 C   12.0110  -2.59502430  -0.23907089   8.28731931   0
  19 C   12.0110  -1.27970799  -0.36394976  10.57526271   0
  20 H    1.0080  -4.62286458  -0.54766643   8.26763309   0
  23 H    1.0080  -2.28740659  -0.73723984  12.34029148   0

----------------------
SYMMETRY ADAPTED BASIS
----------------------
The coefficients for the symmetry adapted linear combinations (SALCS)
of basis functions will now be computed:
Number of basis functions         ...   475
Preparing memory                  ... done
Constructing Gamma(red)           ... done
Reducing Gamma(red)               ... done
Constructing SALCs                ... done
Checking SALC integrity           ... nothing suspicious
Normalizing SALCs                 ... done

Storing the symmetry object:
Symmetry file                     ... input_47.sym.tmp
Writing symmetry information      ... done

                       ****************************
                       * Single Point Calculation *
                       ****************************

---------------------------------
CARTESIAN COORDINATES (ANGSTROEM)
---------------------------------
  Cu    -0.000000    0.000000   -0.000000
  S     -1.600512   -0.220568    1.661931
  C     -0.718201    0.003212    3.151642
  S     -1.600722   -0.218961   -1.661931
  C     -0.716352   -0.010950   -3.151642
  S      1.600512    0.220568    1.661931
  C      0.718201   -0.003212    3.151642
  S      1.600722    0.218961   -1.661931
  C      0.716352    0.010950   -3.151642
  C      1.372274    0.133816   -4.385461
  C     -1.372274   -0.133816   -4.385461
  C     -0.679086   -0.178079   -5.596188
  H     -2.445807   -0.293706   -4.375043
  C      0.679086    0.178079   -5.596188
  H      2.445807    0.293706   -4.375043
  H     -1.214791   -0.356812   -6.530201
  H      1.214791    0.356812   -6.530201
  C     -1.373228   -0.126511    4.385460
  C      1.373228    0.126511    4.385460
  C     -0.677192   -0.192594    5.596188
  H     -2.446315   -0.289813    4.375043
  C      0.677192    0.192594    5.596188
  H      2.446315    0.289813    4.375043
  H     -1.210443   -0.390131    6.530201
  H      1.210443    0.390131    6.530201

----------------------------
CARTESIAN COORDINATES (A.U.)
----------------------------
  NO LB      ZA    FRAG     MASS         X           Y           Z
   0 Cu   29.0000    0    63.550   -0.000000    0.000000   -0.000000
   1 S    16.0000    0    32.060   -3.024529   -0.416813    3.140594
   2 C     6.0000    0    12.011   -1.357202    0.006071    5.955740
   3 S    16.0000    0    32.060   -3.024925   -0.413776   -3.140594
   4 C     6.0000    0    12.011   -1.353710   -0.020693   -5.955740
   5 S    16.0000    0    32.060    3.024529    0.416813    3.140594
   6 C     6.0000    0    12.011    1.357202   -0.006071    5.955740
   7 S    16.0000    0    32.060    3.024925    0.413776   -3.140594
   8 C     6.0000    0    12.011    1.353710    0.020693   -5.955740
   9 C     6.0000    0    12.011    2.593223    0.252875   -8.287319
  10 C     6.0000    0    12.011   -2.593223   -0.252875   -8.287319
  11 C     6.0000    0    12.011   -1.283287   -0.336521  -10.575263
  12 H     1.0000    0     1.008   -4.621905   -0.555023   -8.267632
  13 C     6.0000    0    12.011    1.283287    0.336521  -10.575263
  14 H     1.0000    0     1.008    4.621905    0.555023   -8.267632
  15 H     1.0000    0     1.008   -2.295623   -0.674276  -12.340291
  16 H     1.0000    0     1.008    2.295623    0.674276  -12.340291
  17 C     6.0000    0    12.011   -2.595024   -0.239071    8.287319
  18 C     6.0000    0    12.011    2.595024    0.239071    8.287319
  19 C     6.0000    0    12.011   -1.279708   -0.363950   10.575263
  20 H     1.0000    0     1.008   -4.622865   -0.547666    8.267633
  21 C     6.0000    0    12.011    1.279708    0.363950   10.575263
  22 H     1.0000    0     1.008    4.622865    0.547666    8.267633
  23 H     1.0000    0     1.008   -2.287407   -0.737240   12.340291
  24 H     1.0000    0     1.008    2.287407    0.737240   12.340291

--------------------------------
INTERNAL COORDINATES (ANGSTROEM)
--------------------------------
 Cu     0   0   0     0.000000000000     0.00000000     0.00000000
 S      1   0   0     2.317822949104     0.00000000     0.00000000
 C      2   1   0     1.745791799730   104.51669622     0.00000000
 S      1   2   3     2.317815392823    91.61858461   183.47391879
 C      4   1   2     1.744882349840   104.52935967   177.11390964
 S      1   2   3     2.317822939083    88.38162129     3.43388260
 C      3   2   1     1.436415491166   120.31907974   347.74606891
 S      1   2   3     2.317815388511   179.95990509    93.72918363
 C      5   4   1     1.432872188856   120.57058860    10.47581817
 C      9   5   4     1.402725843241   117.96217614   177.78826808
 C      5   4   1     1.402724383999   120.23285829   177.52717222
 C     11   5   4     1.395826585789   122.24245098   189.91684122
 H     11   5   4     1.085422839083   117.83599715     4.00220038
 C     10   9   5     1.395825335579   122.24254152   357.29865452
 H     10   9   5     1.085424394799   117.83607552   171.38010780
 H     12  11   5     1.091471099818   120.24576632   174.93913179
 H     14  10   9     1.091467527034   120.24569554   174.94206596
 C      3   2   1     1.402923744158   120.17463510   182.92512735
 C      7   3   2     1.402924998907   117.80619089   182.55434093
 C     18   3   2     1.398104191221   122.24371993   168.43370524
 H     18   3   2     1.085491411696   117.84212096   355.29087545
 C     19   7   3     1.398102768805   122.24378048     3.23952744
 H     19   7   3     1.085491208707   117.84203972   190.09530255
 H     20  18   3     1.093508448817   120.36026267   185.91410900
 H     22  19   7     1.093505737392   120.36021312   185.91238350

---------------------------
INTERNAL COORDINATES (A.U.)
---------------------------
 Cu     0   0   0     0.000000000000     0.00000000     0.00000000
 S      1   0   0     4.380050600725     0.00000000     0.00000000
 C      2   1   0     3.299068388335   104.51669622     0.00000000
 S      1   2   3     4.380036321422    91.61858461   183.47391879
 C      4   1   2     3.297349777110   104.52935967   177.11390964
 S      1   2   3     4.380050581787    88.38162129     3.43388260
 C      3   2   1     2.714431892825   120.31907974   347.74606891
 S      1   2   3     4.380036313274   179.95990509    93.72918363
 C      5   4   1     2.707736021850   120.57058860    10.47581817
 C      9   5   4     2.650767684700   117.96217614   177.78826808
 C      5   4   1     2.650764927131   120.23285829   177.52717222
 C     11   5   4     2.637729977587   122.24245098   189.91684122
 H     11   5   4     2.051151905371   117.83599715     4.00220038
 C     10   9   5     2.637727615032   122.24254152   357.29865452
 H     10   9   5     2.051154845247   117.83607552   171.38010780
 H     12  11   5     2.062581461747   120.24576632   174.93913179
 H     14  10   9     2.062574710162   120.24569554   174.94206596
 C      3   2   1     2.651141663233   120.17463510   182.92512735
 C      7   3   2     2.651144034366   117.80619089   182.55434093
 C     18   3   2     2.642034028095   122.24371993   168.43370524
 H     18   3   2     2.051281488829   117.84212096   355.29087545
 C     19   7   3     2.642031340118   122.24378048     3.23952744
 H     19   7   3     2.051281105236   117.84203972   190.09530255
 H     20  18   3     2.066431493394   120.36026267   185.91410900
 H     22  19   7     2.066426369542   120.36021312   185.91238350

---------------------
BASIS SET INFORMATION
---------------------
There are 4 groups of distinct atoms

 Group   1 Type Cu  : 126s75p30d12f4g contracted to 6s5p3d2f1g pattern {212121212121/1515151515/101010/66/4}
 Group   2 Type S   : 85s48p10d4f contracted to 5s4p2d1f pattern {1717171717/12121212/55/4}
 Group   3 Type C   : 42s18p4d contracted to 3s2p1d pattern {141414/99/4}
 Group   4 Type H   : 24s8p3d contracted to 3s2p1d pattern {888/44/3}

Atom   0Cu   basis set group =>   1
Atom   1S    basis set group =>   2
Atom   2C    basis set group =>   3
Atom   3S    basis set group =>   2
Atom   4C    basis set group =>   3
Atom   5S    basis set group =>   2
Atom   6C    basis set group =>   3
Atom   7S    basis set group =>   2
Atom   8C    basis set group =>   3
Atom   9C    basis set group =>   3
Atom  10C    basis set group =>   3
Atom  11C    basis set group =>   3
Atom  12H    basis set group =>   4
Atom  13C    basis set group =>   3
Atom  14H    basis set group =>   4
Atom  15H    basis set group =>   4
Atom  16H    basis set group =>   4
Atom  17C    basis set group =>   3
Atom  18C    basis set group =>   3
Atom  19C    basis set group =>   3
Atom  20H    basis set group =>   4
Atom  21C    basis set group =>   3
Atom  22H    basis set group =>   4
Atom  23H    basis set group =>   4
Atom  24H    basis set group =>   4

-------------------------
BASIS SET IN INPUT FORMAT
-------------------------

 # Basis set for element : H 
 NewGTO H 
 S 8 
   1     188.6144500000      0.0009638500
   2      28.2765960000      0.0074919600
   3       6.4248300000      0.0375954101
   4       1.8150410000      0.1433949804
   5       0.5910630000      0.3486363010
   6       0.2121490000      0.4382973612
   7       0.0798910000      0.1651066105
   8       0.0279620000      0.0210228701
 S 8 
   1     188.6144500000     -0.0013119000
   2      28.2765960000     -0.0103451000
   3       6.4248300000     -0.0504952998
   4       1.8150410000     -0.2073854991
   5       0.5910630000     -0.4350884981
   6       0.2121490000     -0.0247296999
   7       0.0798910000      0.3225259886
   8       0.0279620000      0.7072753770
 S 8 
   1     188.6144500000      0.0024224000
   2      28.2765960000      0.0203381700
   3       6.4248300000      0.0896393498
   4       1.8150410000      0.4422907090
   5       0.5910630000      0.5757143887
   6       0.2121490000     -0.9802889977
   7       0.0798910000     -0.6721537984
   8       0.0279620000      1.1417684974
 P 4 
   1       2.3050000000      0.1127901896
   2       0.8067500000      0.4185075284
   3       0.2823620000      0.4700077282
   4       0.0988270000      0.1826260293
 P 4 
   1       2.3050000000     -0.2108687968
   2       0.8067500000     -0.5943795909
   3       0.2823620000      0.0896888786
   4       0.0988270000      0.8611633869
 D 3 
   1       1.8190000000      0.2705134090
   2       0.7276000000      0.5510124980
   3       0.2910400000      0.3310866388
  end;

 # Basis set for element : C 
 NewGTO C 
 S 14 
   1   50557.5010000000      0.0001128874
   2    7524.7856000000      0.0005295373
   3    1694.3276000000      0.0024500383
   4     472.8227900000      0.0100539847
   5     151.7107500000      0.0354539806
   6      53.9187460000      0.1044071086
   7      20.6593110000      0.2412894918
   8       8.3839760000      0.3834225483
   9       3.5770150000      0.3078514393
  10       1.5471180000      0.0687244299
  11       0.6130130000      0.0002224445
  12       0.2460680000      0.0019767489
  13       0.0990870000      0.0020578594
  14       0.0346800000      0.0004182020
 S 14 
   1   50557.5010000000     -0.0000250742
   2    7524.7856000000     -0.0001175945
   3    1694.3276000000     -0.0005456275
   4     472.8227900000     -0.0022450771
   5     151.7107500000     -0.0080434718
   6      53.9187460000     -0.0244258871
   7      20.6593110000     -0.0613679118
   8       8.3839760000     -0.1177767835
   9       3.5770150000     -0.1550487783
  10       1.5471180000     -0.0193331686
  11       0.6130130000      0.3996930678
  12       0.2460680000      0.5589420949
  13       0.0990870000      0.1711195023
  14       0.0346800000      0.0074562446
 S 14 
   1   50557.5010000000      0.0000161788
   2    7524.7856000000      0.0000749712
   3    1694.3276000000      0.0003573467
   4     472.8227900000      0.0014349316
   5     151.7107500000      0.0055086779
   6      53.9187460000      0.0169149690
   7      20.6593110000      0.0514166524
   8       8.3839760000      0.1137343741
   9       3.5770150000      0.2337183944
  10       1.5471180000     -0.0718378257
  11       0.6130130000     -1.0490908711
  12       0.2460680000     -0.0666273399
  13       0.0990870000      1.0119993798
  14       0.0346800000      0.1656046386
 P 9 
   1      83.3331550000      0.0013446560
   2      19.5576110000      0.0102355550
   3       6.0803650000      0.0452006710
   4       2.1793170000      0.1410756198
   5       0.8651500000      0.3047388085
   6       0.3619440000      0.3995281011
   7       0.1547400000      0.2719163432
   8       0.0654290000      0.0585766933
   9       0.0229000000     -0.0001263813
 P 9 
   1      83.3331550000     -0.0017715885
   2      19.5576110000     -0.0145621810
   3       6.0803650000     -0.0574573357
   4       2.1793170000     -0.2126582848
   5       0.8651500000     -0.5271712924
   6       0.3619440000     -0.0929697730
   7       0.1547400000      0.6630031669
   8       0.0654290000      0.3360877793
   9       0.0229000000      0.0054695244
 D 4 
   1       1.9000000000      0.1424518048
   2       0.6650000000      0.5591973019
   3       0.2327500000      0.4430004380
   4       0.0814630000      0.0410665370
  end;

 # Basis set for element : S 
 NewGTO S 
 S 17 
   1  346348.2300000000      0.0002909200
   2   49391.1460000000      0.0009466500
   3   14610.9900000000      0.0021192300
   4    5187.2095000000      0.0060216101
   5    1980.9676000000      0.0165972602
   6     784.6313900000      0.0468398906
   7     317.3277900000      0.1224258115
   8     130.0197600000      0.2702243534
   9      53.7382080000      0.4054165750
  10      22.3458960000      0.2557152732
  11       9.3332512000      0.0267169303
  12       3.9111868000      0.0039033200
  13       1.6432066000     -0.0020418900
  14       0.6917456000      0.0014903400
  15       0.2916736000     -0.0006210700
  16       0.1231441000      0.0004416700
  17       0.0492576000     -0.0000032400
 S 17 
   1  346348.2300000000     -0.0000810100
   2   49391.1460000000     -0.0002638800
   3   14610.9900000000     -0.0005926300
   4    5187.2095000000     -0.0016876200
   5    1980.9676000000     -0.0047035700
   6     784.6313900000     -0.0135060701
   7     317.3277900000     -0.0371195902
   8     130.0197600000     -0.0911472306
   9      53.7382080000     -0.1778041811
  10      22.3458960000     -0.1706959211
  11       9.3332512000      0.1742316311
  12       3.9111868000      0.6328368240
  13       1.6432066000      0.3588663523
  14       0.6917456000     -0.0009644400
  15       0.2916736000      0.0065994200
  16       0.1231441000     -0.0052226600
  17       0.0492576000      0.0002938500
 S 17 
   1  346348.2300000000      0.0000228000
   2   49391.1460000000      0.0000742100
   3   14610.9900000000      0.0001671900
   4    5187.2095000000      0.0004737200
   5    1980.9676000000      0.0013310600
   6     784.6313900000      0.0037980100
   7     317.3277900000      0.0105810799
   8     130.0197600000      0.0260196998
   9      53.7382080000      0.0527900097
  10      22.3458960000      0.0519187797
  11       9.3332512000     -0.0569282797
  12       3.9111868000     -0.2909518982
  13       1.6432066000     -0.3163282781
  14       0.6917456000      0.2930993782
  15       0.2916736000      0.6678742660
  16       0.1231441000      0.2872519883
  17       0.0492576000      0.0151688699
 S 17 
   1  346348.2300000000     -0.0000234200
   2   49391.1460000000     -0.0000763700
   3   14610.9900000000     -0.0001708900
   4    5187.2095000000     -0.0004899900
   5    1980.9676000000     -0.0013529300
   6     784.6313900000     -0.0039282000
   7     317.3277900000     -0.0106763700
   8     130.0197600000     -0.0266181300
   9      53.7382080000     -0.0518302700
  10      22.3458960000     -0.0536224500
  11       9.3332512000      0.0708061100
  12       3.9111868000      0.2862498100
  13       1.6432066000      0.4962630700
  14       0.6917456000     -1.0710928201
  15       0.2916736000     -0.7920747001
  16       0.1231441000      1.1988185301
  17       0.0492576000      0.3247575000
 S 17 
   1  346348.2300000000      0.0000338900
   2   49391.1460000000      0.0001080700
   3   14610.9900000000      0.0002591100
   4    5187.2095000000      0.0006557500
   5    1980.9676000000      0.0021438200
   6     784.6313900000      0.0051887500
   7     317.3277900000      0.0175307300
   8     130.0197600000      0.0367282101
   9      53.7382080000      0.0984078002
  10      22.3458960000      0.0619843901
  11       9.3332512000     -0.0870655502
  12       3.9111868000     -0.7402903815
  13       1.6432066000     -0.2511528605
  14       0.6917456000      3.1197276262
  15       0.2916736000     -3.2657334365
  16       0.1231441000      0.4920158210
  17       0.0492576000      0.8345623917
 P 12 
   1    1129.1269000000      0.0009058600
   2     274.0351500000      0.0060003300
   3      97.4025840000      0.0253116602
   4      38.0855180000      0.0919894107
   5      15.4710330000      0.2416502819
   6       6.4056590000      0.4102909632
   7       2.6812828000      0.3521928728
   8       1.1300050000      0.0828164507
   9       0.4783995000      0.0000928000
  10       0.2031805000     -0.0022389700
  11       0.0864923000     -0.0013105000
  12       0.0345969000     -0.0002209200
 P 12 
   1    1129.1269000000     -0.0002245400
   2     274.0351500000     -0.0014885000
   3      97.4025840000     -0.0063494199
   4      38.0855180000     -0.0234428198
   5      15.4710330000     -0.0637025693
   6       6.4056590000     -0.1119708288
   7       2.6812828000     -0.1034727789
   8       1.1300050000      0.1090388789
   9       0.4783995000      0.4183874056
  10       0.2031805000      0.4369409054
  11       0.0864923000      0.1861970080
  12       0.0345969000      0.0283711897
 P 12 
   1    1129.1269000000      0.0002148100
   2     274.0351500000      0.0013786800
   3      97.4025840000      0.0061270600
   4      38.0855180000      0.0217045700
   5      15.4710330000      0.0624373400
   6       6.4056590000      0.1010861900
   7       2.6812828000      0.1170823100
   8       1.1300050000     -0.1626182800
   9       0.4783995000     -0.6646128299
  10       0.2031805000     -0.0025671900
  11       0.0864923000      0.7102817299
  12       0.0345969000      0.3213441399
 P 12 
   1    1129.1269000000     -0.0003343800
   2     274.0351500000     -0.0018333100
   3      97.4025840000     -0.0098956400
   4      38.0855180000     -0.0285233600
   5      15.4710330000     -0.1046413801
   6       6.4056590000     -0.1132883801
   7       2.6812828000     -0.2785634503
   8       1.1300050000      0.7352483107
   9       0.4783995000      0.6335807606
  10       0.2031805000     -1.5012724614
  11       0.0864923000      0.2467031202
  12       0.0345969000      0.7157853907
 D 5 
   1       3.0053679000      0.0358149997
   2       1.2172976000      0.1673418584
   3       0.4930556000      0.5760525045
   4       0.1997078000      0.3501406566
   5       0.0798831000      0.0446746096
 D 5 
   1       3.0053679000     -0.0833935699
   2       1.2172976000      0.5141401396
   3       0.4930556000      0.5282255395
   4       0.1997078000     -0.8555141893
   5       0.0798831000     -0.2680324398
 F 4 
   1       1.1000988000      0.2161817184
   2       0.5272133000      0.5455285260
   3       0.2526627000      0.3289330076
   4       0.1010651000      0.0748646694
  end;

 # Basis set for element : Cu
 NewGTO Cu
 S 21 
   1  9148883.0000000000      0.0001172200
   2  1369956.0000000000      0.0003315500
   3  311782.6000000000      0.0008824300
   4   88318.8000000000      0.0021722900
   5   28815.5300000000      0.0052954701
   6   10403.4600000000      0.0129663001
   7    4057.7910000000      0.0318805003
   8    1682.9740000000      0.0757656907
   9     733.7543000000      0.1624463715
  10     333.2677000000      0.2843595927
  11     156.4338000000      0.3417364333
  12      74.6972100000      0.2095508720
  13      33.3226200000      0.0354475103
  14      16.6223700000     -0.0024399600
  15       8.2082600000      0.0014699000
  16       3.6094000000     -0.0006437900
  17       1.6834490000      0.0002473800
  18       0.7337570000     -0.0000811800
  19       0.1102070000      0.0000161500
  20       0.0387860000     -0.0000123300
  21       0.0155140000      0.0000045200
 S 21 
   1  9148883.0000000000     -0.0000367500
   2  1369956.0000000000     -0.0001040300
   3  311782.6000000000     -0.0002773300
   4   88318.8000000000     -0.0006841700
   5   28815.5300000000     -0.0016768600
   6   10403.4600000000     -0.0041346000
   7    4057.7910000000     -0.0103512700
   8    1682.9740000000     -0.0253479100
   9     733.7543000000     -0.0583694699
  10     333.2677000000     -0.1167328398
  11     156.4338000000     -0.1846685996
  12      74.6972100000     -0.1470089897
  13      33.3226200000      0.1848325696
  14      16.6223700000      0.5677360889
  15       8.2082600000      0.3795609193
  16       3.6094000000      0.0470375499
  17       1.6834490000     -0.0007278300
  18       0.7337570000      0.0010297600
  19       0.1102070000     -0.0000702000
  20       0.0387860000      0.0000709000
  21       0.0155140000     -0.0000245400
 S 21 
   1  9148883.0000000000      0.0000138300
   2  1369956.0000000000      0.0000391400
   3  311782.6000000000      0.0001043900
   4   88318.8000000000      0.0002574500
   5   28815.5300000000      0.0006320300
   6   10403.4600000000      0.0015571800
   7    4057.7910000000      0.0039165900
   8    1682.9740000000      0.0095947599
   9     733.7543000000      0.0223883699
  10     333.2677000000      0.0452860597
  11     156.4338000000      0.0749837795
  12      74.6972100000      0.0618816996
  13      33.3226200000     -0.0904732694
  14      16.6223700000     -0.3928847174
  15       8.2082600000     -0.3566495576
  16       3.6094000000      0.3455479277
  17       1.6834490000      0.7063919653
  18       0.7337570000      0.2533591083
  19       0.1102070000      0.0065874900
  20       0.0387860000     -0.0004424700
  21       0.0155140000      0.0007233800
 S 21 
   1  9148883.0000000000     -0.0000027100
   2  1369956.0000000000     -0.0000076600
   3  311782.6000000000     -0.0000204700
   4   88318.8000000000     -0.0000503000
   5   28815.5300000000     -0.0001244200
   6   10403.4600000000     -0.0003026900
   7    4057.7910000000     -0.0007762800
   8    1682.9740000000     -0.0018524000
   9     733.7543000000     -0.0044827000
  10     333.2677000000     -0.0086602401
  11     156.4338000000     -0.0154472601
  12      74.6972100000     -0.0108986401
  13      33.3226200000      0.0146786701
  14      16.6223700000      0.0915412206
  15       8.2082600000      0.0633085704
  16       3.6094000000     -0.0609387904
  17       1.6834490000     -0.2714854517
  18       0.7337570000     -0.1013894406
  19       0.1102070000      0.7121218043
  20       0.0387860000      0.3461317521
  21       0.0155140000      0.0719870904
 S 21 
   1  9148883.0000000000      0.0000034600
   2  1369956.0000000000      0.0000097900
   3  311782.6000000000      0.0000262600
   4   88318.8000000000      0.0000639200
   5   28815.5300000000      0.0001608700
   6   10403.4600000000      0.0003802300
   7    4057.7910000000      0.0010171600
   8    1682.9740000000      0.0022915200
   9     733.7543000000      0.0059749700
  10     333.2677000000      0.0104469500
  11     156.4338000000      0.0215158300
  12      74.6972100000      0.0103012800
  13      33.3226200000     -0.0098432400
  14      16.6223700000     -0.1429262997
  15       8.2082600000     -0.0561270699
  16       3.6094000000      0.0913564998
  17       1.6834490000      0.4583140189
  18       0.7337570000     -0.1972673995
  19       0.1102070000     -1.3031015670
  20       0.0387860000      0.8797556780
  21       0.0155140000      0.5731088887
 S 21 
   1  9148883.0000000000     -0.0000140100
   2  1369956.0000000000     -0.0000395900
   3  311782.6000000000     -0.0001061200
   4   88318.8000000000     -0.0002590000
   5   28815.5300000000     -0.0006486500
   6   10403.4600000000     -0.0015477000
   7    4057.7910000000     -0.0040834200
   8    1682.9740000000     -0.0094020600
   9     733.7543000000     -0.0238911700
  10     333.2677000000     -0.0435983200
  11     156.4338000000     -0.0858885701
  12      74.6972100000     -0.0473486501
  13      33.3226200000      0.0638259201
  14      16.6223700000      0.5936354107
  15       8.2082600000      0.4150606205
  16       3.6094000000     -1.7002794219
  17       1.6834490000     -0.2979995603
  18       0.7337570000      1.7071942519
  19       0.1102070000     -0.6560005307
  20       0.0387860000     -0.3192452404
  21       0.0155140000      0.6177245607
 P 15 
   1    9713.2530000000      0.0003998700
   2    2300.8890000000      0.0021015700
   3     746.7706000000      0.0100109700
   4     284.6806000000      0.0383603898
   5     119.9999000000      0.1162675595
   6      54.0738600000      0.2589983089
   7      25.3732100000      0.3842822584
   8      12.2096200000      0.2991120987
   9       5.7574210000      0.0800067197
  10       2.6734020000      0.0031944000
  11       1.1868350000      0.0014725200
  12       0.4815930000     -0.0002339100
  13       0.1926370000      0.0002076100
  14       0.0770550000     -0.0000896300
  15       0.0308220000      0.0000278300
 P 15 
   1    9713.2530000000     -0.0001487900
   2    2300.8890000000     -0.0007826200
   3     746.7706000000     -0.0037622900
   4     284.6806000000     -0.0145796799
   5     119.9999000000     -0.0457109297
   6      54.0738600000     -0.1059301293
   7      25.3732100000     -0.1683622789
   8      12.2096200000     -0.1037321293
   9       5.7574210000      0.2108315487
  10       2.6734020000      0.4891644269
  11       1.1868350000      0.3846863776
  12       0.4815930000      0.0852933795
  13       0.1926370000     -0.0016104500
  14       0.0770550000      0.0020653000
  15       0.0308220000     -0.0006417500
 P 15 
   1    9713.2530000000      0.0000505300
   2    2300.8890000000      0.0002671900
   3     746.7706000000      0.0012771800
   4     284.6806000000      0.0049976000
   5     119.9999000000      0.0156137599
   6      54.0738600000      0.0368970098
   7      25.3732100000      0.0579646897
   8      12.2096200000      0.0379196598
   9       5.7574210000     -0.1170649894
  10       2.6734020000     -0.2091225689
  11       1.1868350000     -0.0580053197
  12       0.4815930000      0.1643073591
  13       0.1926370000      0.5288546572
  14       0.0770550000      0.3737301580
  15       0.0308220000      0.0839986596
 P 15 
   1    9713.2530000000     -0.0001587800
   2    2300.8890000000     -0.0008535900
   3     746.7706000000     -0.0039991900
   4     284.6806000000     -0.0160809199
   5     119.9999000000     -0.0492486397
   6      54.0738600000     -0.1216567894
   7      25.3732100000     -0.1771336691
   8      12.2096200000     -0.1444819692
   9       5.7574210000      0.6474331066
  10       2.6734020000      0.5479769171
  11       1.1868350000     -0.7818032059
  12       0.4815930000     -0.5260777772
  13       0.1926370000      0.2243717688
  14       0.0770550000      0.3339245282
  15       0.0308220000      0.1444637392
 P 15 
   1    9713.2530000000      0.0001267900
   2    2300.8890000000      0.0006839700
   3     746.7706000000      0.0032029100
   4     284.6806000000      0.0130135100
   5     119.9999000000      0.0402137099
   6      54.0738600000      0.1015010898
   7      25.3732100000      0.1370095397
   8      12.2096200000      0.1062897198
   9       5.7574210000     -0.8339026482
  10       2.6734020000      0.1441200197
  11       1.1868350000      0.9830123878
  12       0.4815930000     -0.5295641788
  13       0.1926370000     -0.7530398383
  14       0.0770550000      0.4428869990
  15       0.0308220000      0.5751158887
 D 10 
   1     249.3497000000      0.0013456100
   2      74.6383700000      0.0108098300
   3      28.3764100000      0.0473379301
   4      11.9489300000      0.1377258202
   5       5.3176460000      0.2626383304
   6       2.3644170000      0.3347040105
   7       1.0123860000      0.3100059705
   8       0.4067730000      0.2131681903
   9       0.1473310000      0.0786536501
  10       0.0589320000      0.0060309600
 D 10 
   1     249.3497000000     -0.0015835900
   2      74.6383700000     -0.0128111601
   3      28.3764100000     -0.0564267902
   4      11.9489300000     -0.1664139307
   5       5.3176460000     -0.3510601415
   6       2.3644170000     -0.2371789010
   7       1.0123860000      0.2199464110
   8       0.4067730000      0.4884136321
   9       0.1473310000      0.2953713113
  10       0.0589320000      0.0429553902
 D 10 
   1     249.3497000000      0.0019111600
   2      74.6383700000      0.0177249500
   3      28.3764100000      0.0705638099
   4      11.9489300000      0.2290610097
   5       5.3176460000      0.4393851094
   6       2.3644170000     -0.2673990797
   7       1.0123860000     -0.6259062392
   8       0.4067730000      0.1221133998
   9       0.1473310000      0.5368362893
  10       0.0589320000      0.1975005497
 F 6 
   1      15.4333000000      0.0368206299
   2       6.1172000000      0.2459141793
   3       2.4246000000      0.5011268786
   4       0.9610000000      0.3585064790
   5       0.3809000000      0.1472806196
   6       0.1510000000      0.0256474799
 F 6 
   1      15.4333000000     -0.0620033603
   2       6.1172000000     -0.5287666929
   3       2.4246000000     -0.2907838616
   4       0.9610000000      0.5212415728
   5       0.3809000000      0.3753220521
   6       0.1510000000      0.1065979806
 G 4 
   1       8.7286000000      0.1690384791
   2       3.4308000000      0.6065418469
   3       1.3485000000      0.3797989880
   4       0.5300000000      0.1036775695
  end;

---------------------------------
AUXILIARY/J BASIS SET INFORMATION
---------------------------------
There are 4 groups of distinct atoms

 Group   1 Type Cu  : 23s20p18d17f13g5h contracted to 23s20p18d17f13g5h pattern {11111111111111111111111/11111111111111111111/111111111111111111/11111111111111111/1111111111111/11111}
 Group   2 Type S   : 20s17p16d7f contracted to 20s17p16d7f pattern {11111111111111111111/11111111111111111/1111111111111111/1111111}
 Group   3 Type C   : 17s14p13d4f contracted to 17s14p13d4f pattern {11111111111111111/11111111111111/1111111111111/1111}
 Group   4 Type H   : 12s5p4d3f contracted to 12s5p4d3f pattern {111111111111/11111/1111/111}

Atom   0Cu   basis set group =>   1
Atom   1S    basis set group =>   2
Atom   2C    basis set group =>   3
Atom   3S    basis set group =>   2
Atom   4C    basis set group =>   3
Atom   5S    basis set group =>   2
Atom   6C    basis set group =>   3
Atom   7S    basis set group =>   2
Atom   8C    basis set group =>   3
Atom   9C    basis set group =>   3
Atom  10C    basis set group =>   3
Atom  11C    basis set group =>   3
Atom  12H    basis set group =>   4
Atom  13C    basis set group =>   3
Atom  14H    basis set group =>   4
Atom  15H    basis set group =>   4
Atom  16H    basis set group =>   4
Atom  17C    basis set group =>   3
Atom  18C    basis set group =>   3
Atom  19C    basis set group =>   3
Atom  20H    basis set group =>   4
Atom  21C    basis set group =>   3
Atom  22H    basis set group =>   4
Atom  23H    basis set group =>   4
Atom  24H    basis set group =>   4

-------------------------------------
AUXILIARY/J BASIS SET IN INPUT FORMAT
-------------------------------------

 # Auxiliary/J basis set for element : H 
 NewAuxJGTO H 
 S 1 
   1      35.9414656527      1.0000000000
 S 1 
   1      19.9674809182      1.0000000000
 S 1 
   1      11.0930449545      1.0000000000
 S 1 
   1       6.1628027525      1.0000000000
 S 1 
   1       3.4237793070      1.0000000000
 S 1 
   1       1.9020996150      1.0000000000
 S 1 
   1       1.0567220083      1.0000000000
 S 1 
   1       0.5870677824      1.0000000000
 S 1 
   1       0.3261487680      1.0000000000
 S 1 
   1       0.1811937600      1.0000000000
 S 1 
   1       0.1006632000      1.0000000000
 S 1 
   1       0.0559240000      1.0000000000
 P 1 
   1       2.0286240000      1.0000000000
 P 1 
   1       1.0143120000      1.0000000000
 P 1 
   1       0.5071560000      1.0000000000
 P 1 
   1       0.2535780000      1.0000000000
 P 1 
   1       0.1267890000      1.0000000000
 D 1 
   1       2.1046197920      1.0000000000
 D 1 
   1       0.9566453600      1.0000000000
 D 1 
   1       0.4348388000      1.0000000000
 D 1 
   1       0.1976540000      1.0000000000
 F 1 
   1       1.8869562800      1.0000000000
 F 1 
   1       0.8577074000      1.0000000000
 F 1 
   1       0.3898670000      1.0000000000
  end;

 # Auxiliary/J basis set for element : C 
 NewAuxJGTO C 
 S 1 
   1     556.1930524224      1.0000000000
 S 1 
   1     308.9961402347      1.0000000000
 S 1 
   1     171.6645223526      1.0000000000
 S 1 
   1      95.3691790848      1.0000000000
 S 1 
   1      52.9828772693      1.0000000000
 S 1 
   1      29.4349318163      1.0000000000
 S 1 
   1      16.3527398979      1.0000000000
 S 1 
   1       9.0848554989      1.0000000000
 S 1 
   1       5.0471419438      1.0000000000
 S 1 
   1       2.8039677466      1.0000000000
 S 1 
   1       1.5577598592      1.0000000000
 S 1 
   1       0.8654221440      1.0000000000
 S 1 
   1       0.4807900800      1.0000000000
 S 1 
   1       0.2671056000      1.0000000000
 S 1 
   1       0.1483920000      1.0000000000
 S 1 
   1       0.0824400000      1.0000000000
 S 1 
   1       0.0458000000      1.0000000000
 P 1 
   1      95.3691790848      1.0000000000
 P 1 
   1      52.9828772693      1.0000000000
 P 1 
   1      29.4349318163      1.0000000000
 P 1 
   1      16.3527398979      1.0000000000
 P 1 
   1       9.0848554989      1.0000000000
 P 1 
   1       5.0471419438      1.0000000000
 P 1 
   1       2.8039677466      1.0000000000
 P 1 
   1       1.5577598592      1.0000000000
 P 1 
   1       0.8654221440      1.0000000000
 P 1 
   1       0.4807900800      1.0000000000
 P 1 
   1       0.2671056000      1.0000000000
 P 1 
   1       0.1483920000      1.0000000000
 P 1 
   1       0.0824400000      1.0000000000
 P 1 
   1       0.0458000000      1.0000000000
 D 1 
   1      52.9828772693      1.0000000000
 D 1 
   1      29.4349318163      1.0000000000
 D 1 
   1      16.3527398979      1.0000000000
 D 1 
   1       9.0848554989      1.0000000000
 D 1 
   1       5.0471419438      1.0000000000
 D 1 
   1       2.8039677466      1.0000000000
 D 1 
   1       1.5577598592      1.0000000000
 D 1 
   1       0.8654221440      1.0000000000
 D 1 
   1       0.4807900800      1.0000000000
 D 1 
   1       0.2671056000      1.0000000000
 D 1 
   1       0.1483920000      1.0000000000
 D 1 
   1       0.0824400000      1.0000000000
 D 1 
   1       0.0458000000      1.0000000000
 F 1 
   1       1.1112572240      1.0000000000
 F 1 
   1       0.5051169200      1.0000000000
 F 1 
   1       0.2295986000      1.0000000000
 F 1 
   1       0.1043630000      1.0000000000
  end;

 # Auxiliary/J basis set for element : S 
 NewAuxJGTO S 
 S 1 
   1    4900.5494839448      1.0000000000
 S 1 
   1    2722.5274910805      1.0000000000
 S 1 
   1    1512.5152728225      1.0000000000
 S 1 
   1     840.2862626792      1.0000000000
 S 1 
   1     466.8257014884      1.0000000000
 S 1 
   1     259.3476119380      1.0000000000
 S 1 
   1     144.0820066322      1.0000000000
 S 1 
   1      80.0455592401      1.0000000000
 S 1 
   1      44.4697551334      1.0000000000
 S 1 
   1      24.7054195186      1.0000000000
 S 1 
   1      13.7252330659      1.0000000000
 S 1 
   1       7.6251294810      1.0000000000
 S 1 
   1       4.2361830450      1.0000000000
 S 1 
   1       2.3534350250      1.0000000000
 S 1 
   1       1.3074639028      1.0000000000
 S 1 
   1       0.7263688349      1.0000000000
 S 1 
   1       0.4035382416      1.0000000000
 S 1 
   1       0.2241879120      1.0000000000
 S 1 
   1       0.1245488400      1.0000000000
 S 1 
   1       0.0691938000      1.0000000000
 P 1 
   1     840.2862626792      1.0000000000
 P 1 
   1     466.8257014884      1.0000000000
 P 1 
   1     259.3476119380      1.0000000000
 P 1 
   1     144.0820066322      1.0000000000
 P 1 
   1      80.0455592401      1.0000000000
 P 1 
   1      44.4697551334      1.0000000000
 P 1 
   1      24.7054195186      1.0000000000
 P 1 
   1      13.7252330659      1.0000000000
 P 1 
   1       7.6251294810      1.0000000000
 P 1 
   1       4.2361830450      1.0000000000
 P 1 
   1       2.3534350250      1.0000000000
 P 1 
   1       1.3074639028      1.0000000000
 P 1 
   1       0.7263688349      1.0000000000
 P 1 
   1       0.4035382416      1.0000000000
 P 1 
   1       0.2241879120      1.0000000000
 P 1 
   1       0.1245488400      1.0000000000
 P 1 
   1       0.0691938000      1.0000000000
 D 1 
   1     466.8257014884      1.0000000000
 D 1 
   1     259.3476119380      1.0000000000
 D 1 
   1     144.0820066322      1.0000000000
 D 1 
   1      80.0455592401      1.0000000000
 D 1 
   1      44.4697551334      1.0000000000
 D 1 
   1      24.7054195186      1.0000000000
 D 1 
   1      13.7252330659      1.0000000000
 D 1 
   1       7.6251294810      1.0000000000
 D 1 
   1       4.2361830450      1.0000000000
 D 1 
   1       2.3534350250      1.0000000000
 D 1 
   1       1.3074639028      1.0000000000
 D 1 
   1       0.7263688349      1.0000000000
 D 1 
   1       0.4035382416      1.0000000000
 D 1 
   1       0.2241879120      1.0000000000
 D 1 
   1       0.1245488400      1.0000000000
 D 1 
   1       0.0691938000      1.0000000000
 F 1 
   1      12.9797314099      1.0000000000
 F 1 
   1       5.8998779136      1.0000000000
 F 1 
   1       2.6817626880      1.0000000000
 F 1 
   1       1.2189830400      1.0000000000
 F 1 
   1       0.5540832000      1.0000000000
 F 1 
   1       0.2518560000      1.0000000000
 F 1 
   1       0.1144800000      1.0000000000
  end;

 # Auxiliary/J basis set for element : Cu
 NewAuxJGTO Cu
 S 1 
   1   12815.8936556437      1.0000000000
 S 1 
   1    7119.9409198021      1.0000000000
 S 1 
   1    3955.5227332234      1.0000000000
 S 1 
   1    2197.5126295685      1.0000000000
 S 1 
   1    1220.8403497603      1.0000000000
 S 1 
   1     678.2446387557      1.0000000000
 S 1 
   1     376.8025770865      1.0000000000
 S 1 
   1     209.3347650481      1.0000000000
 S 1 
   1     116.2970916934      1.0000000000
 S 1 
   1      64.6094953852      1.0000000000
 S 1 
   1      35.8941641029      1.0000000000
 S 1 
   1      19.9412022794      1.0000000000
 S 1 
   1      11.0784457108      1.0000000000
 S 1 
   1       6.1546920615      1.0000000000
 S 1 
   1       3.4192733675      1.0000000000
 S 1 
   1       1.8995963153      1.0000000000
 S 1 
   1       1.0553312863      1.0000000000
 S 1 
   1       0.5862951590      1.0000000000
 S 1 
   1       0.3257195328      1.0000000000
 S 1 
   1       0.1809552960      1.0000000000
 S 1 
   1       0.1005307200      1.0000000000
 S 1 
   1       0.0558504000      1.0000000000
 S 1 
   1       0.0310280000      1.0000000000
 P 1 
   1    3281.6792962385      1.0000000000
 P 1 
   1    1823.1551645769      1.0000000000
 P 1 
   1    1012.8639803205      1.0000000000
 P 1 
   1     562.7022112892      1.0000000000
 P 1 
   1     312.6123396051      1.0000000000
 P 1 
   1     173.6735220028      1.0000000000
 P 1 
   1      96.4852900016      1.0000000000
 P 1 
   1      53.6029388898      1.0000000000
 P 1 
   1      29.7794104943      1.0000000000
 P 1 
   1      16.5441169413      1.0000000000
 P 1 
   1       9.1911760785      1.0000000000
 P 1 
   1       5.1062089325      1.0000000000
 P 1 
   1       2.8367827403      1.0000000000
 P 1 
   1       1.5759904113      1.0000000000
 P 1 
   1       0.8755502285      1.0000000000
 P 1 
   1       0.4864167936      1.0000000000
 P 1 
   1       0.2702315520      1.0000000000
 P 1 
   1       0.1501286400      1.0000000000
 P 1 
   1       0.0834048000      1.0000000000
 P 1 
   1       0.0463360000      1.0000000000
 D 1 
   1    1347.4833218853      1.0000000000
 D 1 
   1     748.6018454918      1.0000000000
 D 1 
   1     415.8899141621      1.0000000000
 D 1 
   1     231.0499523123      1.0000000000
 D 1 
   1     128.3610846179      1.0000000000
 D 1 
   1      71.3117136766      1.0000000000
 D 1 
   1      39.6176187092      1.0000000000
 D 1 
   1      22.0097881718      1.0000000000
 D 1 
   1      12.2276600954      1.0000000000
 D 1 
   1       6.7931444975      1.0000000000
 D 1 
   1       3.7739691653      1.0000000000
 D 1 
   1       2.0966495363      1.0000000000
 D 1 
   1       1.1648052979      1.0000000000
 D 1 
   1       0.6471140544      1.0000000000
 D 1 
   1       0.3595078080      1.0000000000
 D 1 
   1       0.1997265600      1.0000000000
 D 1 
   1       0.1109592000      1.0000000000
 D 1 
   1       0.0616440000      1.0000000000
 F 1 
   1    1089.9683674044      1.0000000000
 F 1 
   1     605.5379818913      1.0000000000
 F 1 
   1     336.4099899396      1.0000000000
 F 1 
   1     186.8944388553      1.0000000000
 F 1 
   1     103.8302438085      1.0000000000
 F 1 
   1      57.6834687825      1.0000000000
 F 1 
   1      32.0463715458      1.0000000000
 F 1 
   1      17.8035397477      1.0000000000
 F 1 
   1       9.8908554154      1.0000000000
 F 1 
   1       5.4949196752      1.0000000000
 F 1 
   1       3.0527331529      1.0000000000
 F 1 
   1       1.6959628627      1.0000000000
 F 1 
   1       0.9422015904      1.0000000000
 F 1 
   1       0.5234453280      1.0000000000
 F 1 
   1       0.2908029600      1.0000000000
 F 1 
   1       0.1615572000      1.0000000000
 F 1 
   1       0.0897540000      1.0000000000
 G 1 
   1     136.3487739404      1.0000000000
 G 1 
   1      75.7493188558      1.0000000000
 G 1 
   1      42.0829549199      1.0000000000
 G 1 
   1      23.3794193999      1.0000000000
 G 1 
   1      12.9885663333      1.0000000000
 G 1 
   1       7.2158701852      1.0000000000
 G 1 
   1       4.0088167695      1.0000000000
 G 1 
   1       2.2271204275      1.0000000000
 G 1 
   1       1.2372891264      1.0000000000
 G 1 
   1       0.6873828480      1.0000000000
 G 1 
   1       0.3818793600      1.0000000000
 G 1 
   1       0.2121552000      1.0000000000
 G 1 
   1       0.1178640000      1.0000000000
 H 1 
   1       5.8747580812      1.0000000000
 H 1 
   1       2.5542426440      1.0000000000
 H 1 
   1       1.1105402800      1.0000000000
 H 1 
   1       0.4828436000      1.0000000000
 H 1 
   1       0.2099320000      1.0000000000
  end;

---------------------------------
AUXILIARY/C BASIS SET INFORMATION
---------------------------------
There are 4 groups of distinct atoms

 Group   1 Type Cu  : 23s20p18d17f13g5h contracted to 23s20p18d17f13g5h pattern {11111111111111111111111/11111111111111111111/111111111111111111/11111111111111111/1111111111111/11111}
 Group   2 Type S   : 20s17p16d7f contracted to 20s17p16d7f pattern {11111111111111111111/11111111111111111/1111111111111111/1111111}
 Group   3 Type C   : 17s14p13d4f contracted to 17s14p13d4f pattern {11111111111111111/11111111111111/1111111111111/1111}
 Group   4 Type H   : 12s5p4d3f contracted to 12s5p4d3f pattern {111111111111/11111/1111/111}

Atom   0Cu   basis set group =>   1
Atom   1S    basis set group =>   2
Atom   2C    basis set group =>   3
Atom   3S    basis set group =>   2
Atom   4C    basis set group =>   3
Atom   5S    basis set group =>   2
Atom   6C    basis set group =>   3
Atom   7S    basis set group =>   2
Atom   8C    basis set group =>   3
Atom   9C    basis set group =>   3
Atom  10C    basis set group =>   3
Atom  11C    basis set group =>   3
Atom  12H    basis set group =>   4
Atom  13C    basis set group =>   3
Atom  14H    basis set group =>   4
Atom  15H    basis set group =>   4
Atom  16H    basis set group =>   4
Atom  17C    basis set group =>   3
Atom  18C    basis set group =>   3
Atom  19C    basis set group =>   3
Atom  20H    basis set group =>   4
Atom  21C    basis set group =>   3
Atom  22H    basis set group =>   4
Atom  23H    basis set group =>   4
Atom  24H    basis set group =>   4

-------------------------------------
AUXILIARY/C BASIS SET IN INPUT FORMAT
-------------------------------------

 # Auxiliary/C basis set for element : H 
 NewAuxCGTO H 
 S 1 
   1      35.9414656527      1.0000000000
 S 1 
   1      19.9674809182      1.0000000000
 S 1 
   1      11.0930449545      1.0000000000
 S 1 
   1       6.1628027525      1.0000000000
 S 1 
   1       3.4237793070      1.0000000000
 S 1 
   1       1.9020996150      1.0000000000
 S 1 
   1       1.0567220083      1.0000000000
 S 1 
   1       0.5870677824      1.0000000000
 S 1 
   1       0.3261487680      1.0000000000
 S 1 
   1       0.1811937600      1.0000000000
 S 1 
   1       0.1006632000      1.0000000000
 S 1 
   1       0.0559240000      1.0000000000
 P 1 
   1       2.0286240000      1.0000000000
 P 1 
   1       1.0143120000      1.0000000000
 P 1 
   1       0.5071560000      1.0000000000
 P 1 
   1       0.2535780000      1.0000000000
 P 1 
   1       0.1267890000      1.0000000000
 D 1 
   1       2.1046197920      1.0000000000
 D 1 
   1       0.9566453600      1.0000000000
 D 1 
   1       0.4348388000      1.0000000000
 D 1 
   1       0.1976540000      1.0000000000
 F 1 
   1       1.8869562800      1.0000000000
 F 1 
   1       0.8577074000      1.0000000000
 F 1 
   1       0.3898670000      1.0000000000
  end;

 # Auxiliary/C basis set for element : C 
 NewAuxCGTO C 
 S 1 
   1     556.1930524224      1.0000000000
 S 1 
   1     308.9961402347      1.0000000000
 S 1 
   1     171.6645223526      1.0000000000
 S 1 
   1      95.3691790848      1.0000000000
 S 1 
   1      52.9828772693      1.0000000000
 S 1 
   1      29.4349318163      1.0000000000
 S 1 
   1      16.3527398979      1.0000000000
 S 1 
   1       9.0848554989      1.0000000000
 S 1 
   1       5.0471419438      1.0000000000
 S 1 
   1       2.8039677466      1.0000000000
 S 1 
   1       1.5577598592      1.0000000000
 S 1 
   1       0.8654221440      1.0000000000
 S 1 
   1       0.4807900800      1.0000000000
 S 1 
   1       0.2671056000      1.0000000000
 S 1 
   1       0.1483920000      1.0000000000
 S 1 
   1       0.0824400000      1.0000000000
 S 1 
   1       0.0458000000      1.0000000000
 P 1 
   1      95.3691790848      1.0000000000
 P 1 
   1      52.9828772693      1.0000000000
 P 1 
   1      29.4349318163      1.0000000000
 P 1 
   1      16.3527398979      1.0000000000
 P 1 
   1       9.0848554989      1.0000000000
 P 1 
   1       5.0471419438      1.0000000000
 P 1 
   1       2.8039677466      1.0000000000
 P 1 
   1       1.5577598592      1.0000000000
 P 1 
   1       0.8654221440      1.0000000000
 P 1 
   1       0.4807900800      1.0000000000
 P 1 
   1       0.2671056000      1.0000000000
 P 1 
   1       0.1483920000      1.0000000000
 P 1 
   1       0.0824400000      1.0000000000
 P 1 
   1       0.0458000000      1.0000000000
 D 1 
   1      52.9828772693      1.0000000000
 D 1 
   1      29.4349318163      1.0000000000
 D 1 
   1      16.3527398979      1.0000000000
 D 1 
   1       9.0848554989      1.0000000000
 D 1 
   1       5.0471419438      1.0000000000
 D 1 
   1       2.8039677466      1.0000000000
 D 1 
   1       1.5577598592      1.0000000000
 D 1 
   1       0.8654221440      1.0000000000
 D 1 
   1       0.4807900800      1.0000000000
 D 1 
   1       0.2671056000      1.0000000000
 D 1 
   1       0.1483920000      1.0000000000
 D 1 
   1       0.0824400000      1.0000000000
 D 1 
   1       0.0458000000      1.0000000000
 F 1 
   1       1.1112572240      1.0000000000
 F 1 
   1       0.5051169200      1.0000000000
 F 1 
   1       0.2295986000      1.0000000000
 F 1 
   1       0.1043630000      1.0000000000
  end;

 # Auxiliary/C basis set for element : S 
 NewAuxCGTO S 
 S 1 
   1    4900.5494839448      1.0000000000
 S 1 
   1    2722.5274910805      1.0000000000
 S 1 
   1    1512.5152728225      1.0000000000
 S 1 
   1     840.2862626792      1.0000000000
 S 1 
   1     466.8257014884      1.0000000000
 S 1 
   1     259.3476119380      1.0000000000
 S 1 
   1     144.0820066322      1.0000000000
 S 1 
   1      80.0455592401      1.0000000000
 S 1 
   1      44.4697551334      1.0000000000
 S 1 
   1      24.7054195186      1.0000000000
 S 1 
   1      13.7252330659      1.0000000000
 S 1 
   1       7.6251294810      1.0000000000
 S 1 
   1       4.2361830450      1.0000000000
 S 1 
   1       2.3534350250      1.0000000000
 S 1 
   1       1.3074639028      1.0000000000
 S 1 
   1       0.7263688349      1.0000000000
 S 1 
   1       0.4035382416      1.0000000000
 S 1 
   1       0.2241879120      1.0000000000
 S 1 
   1       0.1245488400      1.0000000000
 S 1 
   1       0.0691938000      1.0000000000
 P 1 
   1     840.2862626792      1.0000000000
 P 1 
   1     466.8257014884      1.0000000000
 P 1 
   1     259.3476119380      1.0000000000
 P 1 
   1     144.0820066322      1.0000000000
 P 1 
   1      80.0455592401      1.0000000000
 P 1 
   1      44.4697551334      1.0000000000
 P 1 
   1      24.7054195186      1.0000000000
 P 1 
   1      13.7252330659      1.0000000000
 P 1 
   1       7.6251294810      1.0000000000
 P 1 
   1       4.2361830450      1.0000000000
 P 1 
   1       2.3534350250      1.0000000000
 P 1 
   1       1.3074639028      1.0000000000
 P 1 
   1       0.7263688349      1.0000000000
 P 1 
   1       0.4035382416      1.0000000000
 P 1 
   1       0.2241879120      1.0000000000
 P 1 
   1       0.1245488400      1.0000000000
 P 1 
   1       0.0691938000      1.0000000000
 D 1 
   1     466.8257014884      1.0000000000
 D 1 
   1     259.3476119380      1.0000000000
 D 1 
   1     144.0820066322      1.0000000000
 D 1 
   1      80.0455592401      1.0000000000
 D 1 
   1      44.4697551334      1.0000000000
 D 1 
   1      24.7054195186      1.0000000000
 D 1 
   1      13.7252330659      1.0000000000
 D 1 
   1       7.6251294810      1.0000000000
 D 1 
   1       4.2361830450      1.0000000000
 D 1 
   1       2.3534350250      1.0000000000
 D 1 
   1       1.3074639028      1.0000000000
 D 1 
   1       0.7263688349      1.0000000000
 D 1 
   1       0.4035382416      1.0000000000
 D 1 
   1       0.2241879120      1.0000000000
 D 1 
   1       0.1245488400      1.0000000000
 D 1 
   1       0.0691938000      1.0000000000
 F 1 
   1      12.9797314099      1.0000000000
 F 1 
   1       5.8998779136      1.0000000000
 F 1 
   1       2.6817626880      1.0000000000
 F 1 
   1       1.2189830400      1.0000000000
 F 1 
   1       0.5540832000      1.0000000000
 F 1 
   1       0.2518560000      1.0000000000
 F 1 
   1       0.1144800000      1.0000000000
  end;

 # Auxiliary/C basis set for element : Cu
 NewAuxCGTO Cu
 S 1 
   1   12815.8936556437      1.0000000000
 S 1 
   1    7119.9409198021      1.0000000000
 S 1 
   1    3955.5227332234      1.0000000000
 S 1 
   1    2197.5126295685      1.0000000000
 S 1 
   1    1220.8403497603      1.0000000000
 S 1 
   1     678.2446387557      1.0000000000
 S 1 
   1     376.8025770865      1.0000000000
 S 1 
   1     209.3347650481      1.0000000000
 S 1 
   1     116.2970916934      1.0000000000
 S 1 
   1      64.6094953852      1.0000000000
 S 1 
   1      35.8941641029      1.0000000000
 S 1 
   1      19.9412022794      1.0000000000
 S 1 
   1      11.0784457108      1.0000000000
 S 1 
   1       6.1546920615      1.0000000000
 S 1 
   1       3.4192733675      1.0000000000
 S 1 
   1       1.8995963153      1.0000000000
 S 1 
   1       1.0553312863      1.0000000000
 S 1 
   1       0.5862951590      1.0000000000
 S 1 
   1       0.3257195328      1.0000000000
 S 1 
   1       0.1809552960      1.0000000000
 S 1 
   1       0.1005307200      1.0000000000
 S 1 
   1       0.0558504000      1.0000000000
 S 1 
   1       0.0310280000      1.0000000000
 P 1 
   1    3281.6792962385      1.0000000000
 P 1 
   1    1823.1551645769      1.0000000000
 P 1 
   1    1012.8639803205      1.0000000000
 P 1 
   1     562.7022112892      1.0000000000
 P 1 
   1     312.6123396051      1.0000000000
 P 1 
   1     173.6735220028      1.0000000000
 P 1 
   1      96.4852900016      1.0000000000
 P 1 
   1      53.6029388898      1.0000000000
 P 1 
   1      29.7794104943      1.0000000000
 P 1 
   1      16.5441169413      1.0000000000
 P 1 
   1       9.1911760785      1.0000000000
 P 1 
   1       5.1062089325      1.0000000000
 P 1 
   1       2.8367827403      1.0000000000
 P 1 
   1       1.5759904113      1.0000000000
 P 1 
   1       0.8755502285      1.0000000000
 P 1 
   1       0.4864167936      1.0000000000
 P 1 
   1       0.2702315520      1.0000000000
 P 1 
   1       0.1501286400      1.0000000000
 P 1 
   1       0.0834048000      1.0000000000
 P 1 
   1       0.0463360000      1.0000000000
 D 1 
   1    1347.4833218853      1.0000000000
 D 1 
   1     748.6018454918      1.0000000000
 D 1 
   1     415.8899141621      1.0000000000
 D 1 
   1     231.0499523123      1.0000000000
 D 1 
   1     128.3610846179      1.0000000000
 D 1 
   1      71.3117136766      1.0000000000
 D 1 
   1      39.6176187092      1.0000000000
 D 1 
   1      22.0097881718      1.0000000000
 D 1 
   1      12.2276600954      1.0000000000
 D 1 
   1       6.7931444975      1.0000000000
 D 1 
   1       3.7739691653      1.0000000000
 D 1 
   1       2.0966495363      1.0000000000
 D 1 
   1       1.1648052979      1.0000000000
 D 1 
   1       0.6471140544      1.0000000000
 D 1 
   1       0.3595078080      1.0000000000
 D 1 
   1       0.1997265600      1.0000000000
 D 1 
   1       0.1109592000      1.0000000000
 D 1 
   1       0.0616440000      1.0000000000
 F 1 
   1    1089.9683674044      1.0000000000
 F 1 
   1     605.5379818913      1.0000000000
 F 1 
   1     336.4099899396      1.0000000000
 F 1 
   1     186.8944388553      1.0000000000
 F 1 
   1     103.8302438085      1.0000000000
 F 1 
   1      57.6834687825      1.0000000000
 F 1 
   1      32.0463715458      1.0000000000
 F 1 
   1      17.8035397477      1.0000000000
 F 1 
   1       9.8908554154      1.0000000000
 F 1 
   1       5.4949196752      1.0000000000
 F 1 
   1       3.0527331529      1.0000000000
 F 1 
   1       1.6959628627      1.0000000000
 F 1 
   1       0.9422015904      1.0000000000
 F 1 
   1       0.5234453280      1.0000000000
 F 1 
   1       0.2908029600      1.0000000000
 F 1 
   1       0.1615572000      1.0000000000
 F 1 
   1       0.0897540000      1.0000000000
 G 1 
   1     136.3487739404      1.0000000000
 G 1 
   1      75.7493188558      1.0000000000
 G 1 
   1      42.0829549199      1.0000000000
 G 1 
   1      23.3794193999      1.0000000000
 G 1 
   1      12.9885663333      1.0000000000
 G 1 
   1       7.2158701852      1.0000000000
 G 1 
   1       4.0088167695      1.0000000000
 G 1 
   1       2.2271204275      1.0000000000
 G 1 
   1       1.2372891264      1.0000000000
 G 1 
   1       0.6873828480      1.0000000000
 G 1 
   1       0.3818793600      1.0000000000
 G 1 
   1       0.2121552000      1.0000000000
 G 1 
   1       0.1178640000      1.0000000000
 H 1 
   1       5.8747580812      1.0000000000
 H 1 
   1       2.5542426440      1.0000000000
 H 1 
   1       1.1105402800      1.0000000000
 H 1 
   1       0.4828436000      1.0000000000
 H 1 
   1       0.2099320000      1.0000000000
  end;

----------------------------------
AUXILIARY/JK BASIS SET INFORMATION
----------------------------------
There are 4 groups of distinct atoms

 Group   1 Type Cu  : 23s20p18d17f13g5h contracted to 23s20p18d17f13g5h pattern {11111111111111111111111/11111111111111111111/111111111111111111/11111111111111111/1111111111111/11111}
 Group   2 Type S   : 20s17p16d7f contracted to 20s17p16d7f pattern {11111111111111111111/11111111111111111/1111111111111111/1111111}
 Group   3 Type C   : 17s14p13d4f contracted to 17s14p13d4f pattern {11111111111111111/11111111111111/1111111111111/1111}
 Group   4 Type H   : 12s5p4d3f contracted to 12s5p4d3f pattern {111111111111/11111/1111/111}

Atom   0Cu   basis set group =>   1
Atom   1S    basis set group =>   2
Atom   2C    basis set group =>   3
Atom   3S    basis set group =>   2
Atom   4C    basis set group =>   3
Atom   5S    basis set group =>   2
Atom   6C    basis set group =>   3
Atom   7S    basis set group =>   2
Atom   8C    basis set group =>   3
Atom   9C    basis set group =>   3
Atom  10C    basis set group =>   3
Atom  11C    basis set group =>   3
Atom  12H    basis set group =>   4
Atom  13C    basis set group =>   3
Atom  14H    basis set group =>   4
Atom  15H    basis set group =>   4
Atom  16H    basis set group =>   4
Atom  17C    basis set group =>   3
Atom  18C    basis set group =>   3
Atom  19C    basis set group =>   3
Atom  20H    basis set group =>   4
Atom  21C    basis set group =>   3
Atom  22H    basis set group =>   4
Atom  23H    basis set group =>   4
Atom  24H    basis set group =>   4

--------------------------------------
AUXILIARY/JK BASIS SET IN INPUT FORMAT
--------------------------------------

 # Auxiliary/JK basis set for element : H 
 NewAuxJKGTO H 
 S 1 
   1      35.9414656527      1.0000000000
 S 1 
   1      19.9674809182      1.0000000000
 S 1 
   1      11.0930449545      1.0000000000
 S 1 
   1       6.1628027525      1.0000000000
 S 1 
   1       3.4237793070      1.0000000000
 S 1 
   1       1.9020996150      1.0000000000
 S 1 
   1       1.0567220083      1.0000000000
 S 1 
   1       0.5870677824      1.0000000000
 S 1 
   1       0.3261487680      1.0000000000
 S 1 
   1       0.1811937600      1.0000000000
 S 1 
   1       0.1006632000      1.0000000000
 S 1 
   1       0.0559240000      1.0000000000
 P 1 
   1       2.0286240000      1.0000000000
 P 1 
   1       1.0143120000      1.0000000000
 P 1 
   1       0.5071560000      1.0000000000
 P 1 
   1       0.2535780000      1.0000000000
 P 1 
   1       0.1267890000      1.0000000000
 D 1 
   1       2.1046197920      1.0000000000
 D 1 
   1       0.9566453600      1.0000000000
 D 1 
   1       0.4348388000      1.0000000000
 D 1 
   1       0.1976540000      1.0000000000
 F 1 
   1       1.8869562800      1.0000000000
 F 1 
   1       0.8577074000      1.0000000000
 F 1 
   1       0.3898670000      1.0000000000
  end;

 # Auxiliary/JK basis set for element : C 
 NewAuxJKGTO C 
 S 1 
   1     556.1930524224      1.0000000000
 S 1 
   1     308.9961402347      1.0000000000
 S 1 
   1     171.6645223526      1.0000000000
 S 1 
   1      95.3691790848      1.0000000000
 S 1 
   1      52.9828772693      1.0000000000
 S 1 
   1      29.4349318163      1.0000000000
 S 1 
   1      16.3527398979      1.0000000000
 S 1 
   1       9.0848554989      1.0000000000
 S 1 
   1       5.0471419438      1.0000000000
 S 1 
   1       2.8039677466      1.0000000000
 S 1 
   1       1.5577598592      1.0000000000
 S 1 
   1       0.8654221440      1.0000000000
 S 1 
   1       0.4807900800      1.0000000000
 S 1 
   1       0.2671056000      1.0000000000
 S 1 
   1       0.1483920000      1.0000000000
 S 1 
   1       0.0824400000      1.0000000000
 S 1 
   1       0.0458000000      1.0000000000
 P 1 
   1      95.3691790848      1.0000000000
 P 1 
   1      52.9828772693      1.0000000000
 P 1 
   1      29.4349318163      1.0000000000
 P 1 
   1      16.3527398979      1.0000000000
 P 1 
   1       9.0848554989      1.0000000000
 P 1 
   1       5.0471419438      1.0000000000
 P 1 
   1       2.8039677466      1.0000000000
 P 1 
   1       1.5577598592      1.0000000000
 P 1 
   1       0.8654221440      1.0000000000
 P 1 
   1       0.4807900800      1.0000000000
 P 1 
   1       0.2671056000      1.0000000000
 P 1 
   1       0.1483920000      1.0000000000
 P 1 
   1       0.0824400000      1.0000000000
 P 1 
   1       0.0458000000      1.0000000000
 D 1 
   1      52.9828772693      1.0000000000
 D 1 
   1      29.4349318163      1.0000000000
 D 1 
   1      16.3527398979      1.0000000000
 D 1 
   1       9.0848554989      1.0000000000
[...]
  X       0.8449832    0.2141026   -0.4900648
  Y       0.1522683   -0.9747532   -0.1633112
  Z      -0.5126576    0.0633739   -0.8562511

Note: Tensor is right-handed


 Quadrupole tensor eigenvalues (in MHz;Q= 0.0029 I=  1.0)
  e**2qQ            =     0.208370 MHz 
  e**2qQ/(4I*(2I-1))=     0.052092 MHz 
  eta               =     0.092642
  NOTE: the diagonal representation of the SH term I*Q*I = e**2qQ/(4I(2I-1))*[-(1-eta),-(1+eta),2]

 RHO(0)=      0.474435872 a.u.**-3

 -----------------------------------------------------------
 Nucleus  16H : A:ISTP=    1 I=  0.5 P=533.5514 MHz/au**3
                Q:ISTP=    2 I=  1.0 Q=  0.0029 barn     
 -----------------------------------------------------------
 Solving for nuclear perturbation:
Forming RHS of the CP-SCF equations         ... 
Calc. nucleus orbit integrals (SHARK)       ... done

Forming final perturbed densities           ... done
Transforming perturbed density to AO basis  ... done

 Raw HFC matrix (all values in MHz): 
 -----------------------------------
                 0.8194               0.0426              -0.0874
                 0.0454               0.6339              -0.0385
                -0.0928              -0.0387               1.6535

 A(FC)           1.0352               1.0352               1.0352
 A(SD)          -0.4025              -0.2172               0.6197
 A(ORB+DIA)     -0.0090               0.0001               0.0100    A(PC) =   0.0004
 A(ORB)         -0.0090               0.0003               0.0098    A(PC) =   0.0004
 A(DIA)         -0.0001              -0.0001               0.0002    A(PC) =  -0.0000
             ----------           ----------           ----------
 A(Tot)          0.6236               0.8182               1.6649    A(iso)=    1.0356
 Orientation: 
  X           0.2044585            0.9732348           -0.1049321
  Y          -0.9786850            0.2011274           -0.0415147
  Z          -0.0192988            0.1111835            0.9936125

Notes:  (1) The A matrix conforms to the "SAI" spin Hamiltonian convention.
        (2) Tensor is right-handed.

 Raw EFG matrix (all values in a.u.**-3):
 -----------------------------------
            -0.0338       0.0421      -0.1889
             0.0421      -0.1561      -0.0649
            -0.1889      -0.0649       0.1898

 V(El)       0.6065       0.8269      -1.4334
 V(Nuc)     -0.7473      -0.9964       1.7437
         ----------   ----------   ----------
 V(Tot)     -0.1408      -0.1695       0.3103 
 Orientation: 
  X       0.8449832    0.2141026    0.4900648
  Y       0.1522683   -0.9747532    0.1633112
  Z       0.5126576   -0.0633739   -0.8562511

Note: Tensor is right-handed


 Quadrupole tensor eigenvalues (in MHz;Q= 0.0029 I=  1.0)
  e**2qQ            =     0.208370 MHz 
  e**2qQ/(4I*(2I-1))=     0.052092 MHz 
  eta               =     0.092642
  NOTE: the diagonal representation of the SH term I*Q*I = e**2qQ/(4I(2I-1))*[-(1-eta),-(1+eta),2]

 RHO(0)=      0.474435872 a.u.**-3

 -----------------------------------------------------------
 Nucleus  20H : A:ISTP=    1 I=  0.5 P=533.5514 MHz/au**3
                Q:ISTP=    2 I=  1.0 Q=  0.0029 barn     
 -----------------------------------------------------------
 Solving for nuclear perturbation:
Forming RHS of the CP-SCF equations         ... 
Calc. nucleus orbit integrals (SHARK)       ... done

Forming final perturbed densities           ... done
Transforming perturbed density to AO basis  ... done

 Raw HFC matrix (all values in MHz): 
 -----------------------------------
                 0.7655               0.0710              -0.9447
                 0.0669              -0.2256              -0.0674
                -0.9470              -0.0680               2.8561

 A(FC)           1.1397               1.1397               1.1397
 A(SD)          -1.3504              -0.7278               2.0782
 A(ORB+DIA)     -0.0195              -0.0085               0.0049    A(PC) =  -0.0077
 A(ORB)         -0.0192              -0.0080               0.0045    A(PC) =  -0.0076
 A(DIA)         -0.0003              -0.0005               0.0004    A(PC) =  -0.0001
             ----------           ----------           ----------
 A(Tot)         -0.2302               0.4034               3.2227    A(iso)=    1.1320
 Orientation: 
  X           0.0853663            0.9292381           -0.3594846
  Y          -0.9963323            0.0817404           -0.0253053
  Z           0.0058698            0.3603263            0.9328078

Notes:  (1) The A matrix conforms to the "SAI" spin Hamiltonian convention.
        (2) Tensor is right-handed.

 Raw EFG matrix (all values in a.u.**-3):
 -----------------------------------
             0.3043       0.0714      -0.0002
             0.0714      -0.1584      -0.0043
            -0.0002      -0.0043      -0.1459

 V(El)       0.3440       0.9412      -1.2852
 V(Nuc)     -0.4892      -1.1111       1.6002
         ----------   ----------   ----------
 V(Tot)     -0.1452      -0.1699       0.3151 
 Orientation: 
  X       0.0278103   -0.1465942   -0.9888057
  Y      -0.1718387    0.9737617   -0.1491969
  Z       0.9847325    0.1740643    0.0018901

Note: Tensor is right-handed


 Quadrupole tensor eigenvalues (in MHz;Q= 0.0029 I=  1.0)
  e**2qQ            =     0.211579 MHz 
  e**2qQ/(4I*(2I-1))=     0.052895 MHz 
  eta               =     0.078436
  NOTE: the diagonal representation of the SH term I*Q*I = e**2qQ/(4I(2I-1))*[-(1-eta),-(1+eta),2]

 RHO(0)=      0.477161328 a.u.**-3

 -----------------------------------------------------------
 Nucleus  22H : A:ISTP=    1 I=  0.5 P=533.5514 MHz/au**3
                Q:ISTP=    2 I=  1.0 Q=  0.0029 barn     
 -----------------------------------------------------------
 Solving for nuclear perturbation:
Forming RHS of the CP-SCF equations         ... 
Calc. nucleus orbit integrals (SHARK)       ... done

Forming final perturbed densities           ... done
Transforming perturbed density to AO basis  ... done

 Raw HFC matrix (all values in MHz): 
 -----------------------------------
                 0.7655               0.0709               0.9449
                 0.0670              -0.2266               0.0662
                 0.9463               0.0677               2.8563

 A(FC)           1.1397               1.1397               1.1397
 A(SD)          -1.3501              -0.7280               2.0781
 A(ORB+DIA)     -0.0205              -0.0083               0.0049    A(PC) =  -0.0080
 A(ORB)         -0.0201              -0.0078               0.0045    A(PC) =  -0.0078
 A(DIA)         -0.0003              -0.0005               0.0004    A(PC) =  -0.0001
             ----------           ----------           ----------
 A(Tot)         -0.2309               0.4034               3.2227    A(iso)=    1.1317
 Orientation: 
  X           0.0926405            0.9285363            0.3594971
  Y          -0.9956588            0.0896586            0.0249989
  Z          -0.0090196           -0.3602524            0.9328113

Notes:  (1) The A matrix conforms to the "SAI" spin Hamiltonian convention.
        (2) Tensor is right-handed.

 Raw EFG matrix (all values in a.u.**-3):
 -----------------------------------
             0.3043       0.0714       0.0002
             0.0714      -0.1584       0.0043
             0.0002       0.0043      -0.1459

 V(El)       0.3440       0.9412      -1.2852
 V(Nuc)     -0.4892      -1.1111       1.6002
         ----------   ----------   ----------
 V(Tot)     -0.1452      -0.1699       0.3151 
 Orientation: 
  X      -0.0278103   -0.1465942   -0.9888057
  Y       0.1718387    0.9737617   -0.1491969
  Z       0.9847325   -0.1740643   -0.0018901

Note: Tensor is right-handed


 Quadrupole tensor eigenvalues (in MHz;Q= 0.0029 I=  1.0)
  e**2qQ            =     0.211579 MHz 
  e**2qQ/(4I*(2I-1))=     0.052895 MHz 
  eta               =     0.078436
  NOTE: the diagonal representation of the SH term I*Q*I = e**2qQ/(4I(2I-1))*[-(1-eta),-(1+eta),2]

 RHO(0)=      0.477161328 a.u.**-3

 -----------------------------------------------------------
 Nucleus  23H : A:ISTP=    1 I=  0.5 P=533.5514 MHz/au**3
                Q:ISTP=    2 I=  1.0 Q=  0.0029 barn     
 -----------------------------------------------------------
 Solving for nuclear perturbation:
Forming RHS of the CP-SCF equations         ... 
Calc. nucleus orbit integrals (SHARK)       ... done

Forming final perturbed densities           ... done
Transforming perturbed density to AO basis  ... done

 Raw HFC matrix (all values in MHz): 
 -----------------------------------
                 0.8483               0.0443              -0.0846
                 0.0471               0.6640              -0.0439
                -0.0901              -0.0443               1.6817

 A(FC)           1.0643               1.0643               1.0643
 A(SD)          -0.4025              -0.2163               0.6188
 A(ORB+DIA)     -0.0091               0.0002               0.0100    A(PC) =   0.0004
 A(ORB)         -0.0090               0.0003               0.0098    A(PC) =   0.0004
 A(DIA)         -0.0001              -0.0001               0.0002    A(PC) =  -0.0000
             ----------           ----------           ----------
 A(Tot)          0.6527               0.8481               1.6931    A(iso)=    1.0647
 Orientation: 
  X           0.2113265            0.9720710           -0.1020742
  Y          -0.9771097            0.2074930           -0.0469386
  Z          -0.0244479            0.1096571            0.9936688

Notes:  (1) The A matrix conforms to the "SAI" spin Hamiltonian convention.
        (2) Tensor is right-handed.

 Raw EFG matrix (all values in a.u.**-3):
 -----------------------------------
            -0.0349       0.0454      -0.1851
             0.0454      -0.1516      -0.0707
            -0.1851      -0.0707       0.1864

 V(El)       0.6053       0.8225      -1.4278
 V(Nuc)     -0.7445      -0.9901       1.7347
         ----------   ----------   ----------
 V(Tot)     -0.1392      -0.1677       0.3068 
 Orientation: 
  X       0.8432609    0.2274679    0.4870004
  Y       0.1578938   -0.9708958    0.1800861
  Z       0.5137905   -0.0749652   -0.8546342

Note: Tensor is right-handed


 Quadrupole tensor eigenvalues (in MHz;Q= 0.0029 I=  1.0)
  e**2qQ            =     0.206037 MHz 
  e**2qQ/(4I*(2I-1))=     0.051509 MHz 
  eta               =     0.092804
  NOTE: the diagonal representation of the SH term I*Q*I = e**2qQ/(4I(2I-1))*[-(1-eta),-(1+eta),2]

 RHO(0)=      0.473129094 a.u.**-3

 -----------------------------------------------------------
 Nucleus  24H : A:ISTP=    1 I=  0.5 P=533.5514 MHz/au**3
                Q:ISTP=    2 I=  1.0 Q=  0.0029 barn     
 -----------------------------------------------------------
 Solving for nuclear perturbation:
Forming RHS of the CP-SCF equations         ... 
Calc. nucleus orbit integrals (SHARK)       ... done

Forming final perturbed densities           ... done
Transforming perturbed density to AO basis  ... done

 Raw HFC matrix (all values in MHz): 
 -----------------------------------
                 0.8483               0.0444               0.0846
                 0.0468               0.6636               0.0430
                 0.0894               0.0442               1.6816

 A(FC)           1.0643               1.0643               1.0643
 A(SD)          -0.4025              -0.2163               0.6188
 A(ORB+DIA)     -0.0094               0.0002               0.0098    A(PC) =   0.0002
 A(ORB)         -0.0094               0.0004               0.0096    A(PC) =   0.0002
 A(DIA)         -0.0001              -0.0001               0.0002    A(PC) =  -0.0000
             ----------           ----------           ----------
 A(Tot)          0.6524               0.8482               1.6929    A(iso)=    1.0645
 Orientation: 
  X           0.2118832            0.9719510            0.1020621
  Y          -0.9770136            0.2081580            0.0459855
  Z           0.0234506           -0.1094596            0.9937146

Notes:  (1) The A matrix conforms to the "SAI" spin Hamiltonian convention.
        (2) Tensor is right-handed.

 Raw EFG matrix (all values in a.u.**-3):
 -----------------------------------
            -0.0349       0.0454       0.1851
             0.0454      -0.1516       0.0707
             0.1851       0.0707       0.1864

 V(El)       0.6053       0.8225      -1.4278
 V(Nuc)     -0.7445      -0.9901       1.7347
         ----------   ----------   ----------
 V(Tot)     -0.1392      -0.1677       0.3068 
 Orientation: 
  X       0.8432609    0.2274679   -0.4870004
  Y       0.1578938   -0.9708958   -0.1800861
  Z      -0.5137905    0.0749652   -0.8546342

Note: Tensor is right-handed


 Quadrupole tensor eigenvalues (in MHz;Q= 0.0029 I=  1.0)
  e**2qQ            =     0.206037 MHz 
  e**2qQ/(4I*(2I-1))=     0.051509 MHz 
  eta               =     0.092804
  NOTE: the diagonal representation of the SH term I*Q*I = e**2qQ/(4I(2I-1))*[-(1-eta),-(1+eta),2]

 RHO(0)=      0.473129094 a.u.**-3

 -----------------------------------------------------------
 Nucleus   0Cu: A:ISTP=   63 I=  1.5 P=141.6005 MHz/au**3
                Q:ISTP=   63 I=  1.5 Q= -0.2200 barn     
 -----------------------------------------------------------
 Solving for nuclear perturbation:
Forming RHS of the CP-SCF equations         ... 
Calc. nucleus orbit integrals (SHARK)       ... done

Forming final perturbed densities           ... done
Transforming perturbed density to AO basis  ... done

 Raw HFC matrix (all values in MHz): 
 -----------------------------------
               181.3171              42.7598               0.5441
                41.6223            -229.6690              -2.0043
                -0.8335              -1.7566             182.9484

 A(FC)          -3.4418              -3.4418              -3.4418
 A(SD)         161.9157             162.3416            -324.2574
 A(ORB+DIA)     24.6064              26.5793              93.7362    A(PC) =  48.3073
 A(ORB)         24.6063              26.5799              93.7376    A(PC) =  48.3079
 A(DIA)          0.0001              -0.0005              -0.0013    A(PC) =  -0.0006
             ----------           ----------           ----------
 A(Tot)        183.0803             185.4792            -233.9630    A(iso)=   44.8655
 Orientation: 
  X          -0.1235395            0.9870428           -0.1023935
  Y          -0.0176006            0.1009882            0.9947319
  Z           0.9921836            0.1246909            0.0048965

Notes:  (1) The A matrix conforms to the "SAI" spin Hamiltonian convention.
        (2) Tensor is right-handed.

 Raw EFG matrix (all values in a.u.**-3):
 -----------------------------------
             1.1127       0.4069      -0.0000
             0.4069      -1.8200      -0.0000
            -0.0000      -0.0000       0.7073

 V(El)      -0.0127       0.9583      -0.9456
 V(Nuc)      0.7200       0.2098      -0.9298
         ----------   ----------   ----------
 V(Tot)      0.7073       1.1681      -1.8754 
 Orientation: 
  X       0.0000000   -0.9908545    0.1349348
  Y      -0.0000000   -0.1349348   -0.9908545
  Z       1.0000000    0.0000000   -0.0000000

Note: Tensor is right-handed


 Quadrupole tensor eigenvalues (in MHz;Q=-0.2200 I=  1.5)
  e**2qQ            =    96.943917 MHz 
  e**2qQ/(4I*(2I-1))=     8.078660 MHz 
  eta               =     0.245688
  NOTE: the diagonal representation of the SH term I*Q*I = e**2qQ/(4I(2I-1))*[-(1-eta),-(1+eta),2]

 RHO(0)=  37601.867449959 a.u.**-3


--------------------------------------------------------------------------------
----------------------------------------------------------------------------
                           ORCA EULER ANGLE PROGRAM
----------------------------------------------------------------------------

Only g-tensor available        -->  using g-tensor as reference tensor

Reference tensor               ...  g

g-tensor ordering              ...  |g_min> --> |gx>
                                    |g_mid> --> |gy>
                                    |g_max> --> |gz>

A- and EFG-tensor ordering     ...  the axes |Ax>, |Qx>, |Ay>, etc. are assigned
                                    such that the Euler rotation is minimal. You
                                    can find the respective eigenvalues as Ax,
                                    EFGx, Ay, etc. in the tables below.
                                    The relation of |Ax>, |Ay>,  etc. to Amin, Amid, etc.
                                    (as printed in the ORCA EPR/NMR CALCULATION Output)
                                    is obtained in the detailed printout.

Euler rotation around          ...  z - y - z
   First rotation              -->  by alpha around z
   Second rotation             -->  by beta around y'
   Third rotation              -->  by gamma around z''
   Positive / Negative angle   -->  clockwise / counterclockwise rotation

Plot EFG-tensors                    (-)
Plot HFC-tensors                    (-)
Detailed Printout                   (-)

-------------------------------------------------------------------------
          Euler rotation of hyperfine tensor to g-tensor
-------------------------------------------------------------------------

-------------------------------------------------------------------
 Atom  |   Alpha    Beta    Gamma   |   Ax       Ay       Az 
       |          [degrees]         |           [MHz]         
-------------------------------------------------------------------
 12H      116.2      1.4    -82.9       0.42     3.24    -0.21
 14H       56.5      0.9    -65.3       0.42     3.24    -0.21
 15H     -173.9      6.9   -167.6       0.82     1.66     0.62
 16H      156.0      7.2   -150.1       0.82     1.66     0.62
 20H       66.8      0.7    -75.6       0.40     3.22    -0.23
 22H      124.9      1.6    -91.5       0.40     3.22    -0.23
 23H      155.0      7.7   -149.0       0.85     1.69     0.65
 24H     -171.7      7.3   -169.9       0.85     1.69     0.65
  0Cu     118.0      1.7   -112.8     185.48   183.08  -233.96
-------------------------------------------------------------------


-------------------------------------------------------------------------------
    Euler rotation of Electric Field Gradient (EFG) tensor to g-tensor
-------------------------------------------------------------------------------

-------------------------------------------------------------------
 Atom  |   Alpha    Beta    Gamma  |   EFGx     EFGy     EFGz
       |          [degrees]        |         [a.u.**-3]       
-------------------------------------------------------------------
 12H     -115.0      8.3    126.9      0.32    -0.15    -0.17
 14H      110.0     10.3    -97.3      0.32    -0.15    -0.17
 15H     -130.3      7.9    173.2     -0.14     0.31    -0.17
 16H      117.0      8.8   -135.4     -0.14     0.31    -0.17
 20H      108.4     11.7    -95.7      0.32    -0.15    -0.17
 22H     -112.3      9.7    124.2      0.32    -0.15    -0.17
 23H      116.1      9.8   -134.6     -0.14     0.31    -0.17
 24H     -127.9      8.9    170.8     -0.14     0.31    -0.17
  0Cu     159.2      3.0   -147.0      1.17     0.71    -1.88
-------------------------------------------------------------------


Maximum memory used throughout the entire EPRNMR-calculation: 669.6 MB

Timings for individual modules:

Sum of individual times         ...    20148.132 sec (= 335.802 min)
GTO integral calculation        ...       17.726 sec (=   0.295 min)   0.1 %
Spin-Orbit-Coupling Matrices    ...      374.829 sec (=   6.247 min)   1.9 %
SCF iterations                  ...     1218.885 sec (=  20.315 min)   6.0 %
EPR/NMR calculation             ...    18536.692 sec (= 308.945 min)  92.0 %
                             ****ORCA TERMINATED NORMALLY****
TOTAL RUN TIME: 0 days 5 hours 36 minutes 46 seconds 397 msec
