
                                 *****************
                                 * O   R   C   A *
                                 *****************

                                            #,                                       
                                            ###                                      
                                            ####                                     
                                            #####                                    
                                            ######                                   
                                           ########,                                 
                                     ,,################,,,,,                         
                               ,,#################################,,                 
                          ,,##########################################,,             
                       ,#########################################, ''#####,          
                    ,#############################################,,   '####,        
                  ,##################################################,,,,####,       
                ,###########''''           ''''###############################       
              ,#####''   ,,,,##########,,,,          '''####'''          '####       
            ,##' ,,,,###########################,,,                        '##       
           ' ,,###''''                  '''############,,,                           
         ,,##''                                '''############,,,,        ,,,,,,###''
      ,#''                                            '''#######################'''  
     '                                                          ''''####''''         
             ,#######,   #######,   ,#######,      ##                                
            ,#'     '#,  ##    ##  ,#'     '#,    #''#        ######   ,####,        
            ##       ##  ##   ,#'  ##            #'  '#       #        #'  '#        
            ##       ##  #######   ##           ,######,      #####,   #    #        
            '#,     ,#'  ##    ##  '#,     ,#' ,#      #,         ##   #,  ,#        
             '#######'   ##     ##  '#######'  #'      '#     #####' # '####'        



                  #######################################################
                  #                        -***-                        #
                  #          Department of theory and spectroscopy      #
                  #    Directorship and core code : Frank Neese         #
                  #        Max Planck Institute fuer Kohlenforschung    #
                  #                Kaiser Wilhelm Platz 1               #
                  #                 D-45470 Muelheim/Ruhr               #
                  #                      Germany                        #
                  #                                                     #
                  #                  All rights reserved                #
                  #                        -***-                        #
                  #######################################################


                         Program Version 5.0.4 -  RELEASE  -


 With contributions from (in alphabetic order):
   Daniel Aravena         : Magnetic Suceptibility
   Michael Atanasov       : Ab Initio Ligand Field Theory (pilot matlab implementation)
   Alexander A. Auer      : GIAO ZORA, VPT2 properties, NMR spectrum
   Ute Becker             : Parallelization
   Giovanni Bistoni       : ED, misc. LED, open-shell LED, HFLD
   Martin Brehm           : Molecular dynamics
   Dmytro Bykov           : SCF Hessian
   Vijay G. Chilkuri      : MRCI spin determinant printing, contributions to CSF-ICE
   Dipayan Datta          : RHF DLPNO-CCSD density
   Achintya Kumar Dutta   : EOM-CC, STEOM-CC
   Dmitry Ganyushin       : Spin-Orbit,Spin-Spin,Magnetic field MRCI
   Miquel Garcia          : C-PCM and meta-GGA Hessian, CC/C-PCM, Gaussian charge scheme
   Yang Guo               : DLPNO-NEVPT2, F12-NEVPT2, CIM, IAO-localization
   Andreas Hansen         : Spin unrestricted coupled pair/coupled cluster methods
   Benjamin Helmich-Paris : MC-RPA, TRAH-SCF, COSX integrals
   Lee Huntington         : MR-EOM, pCC
   Robert Izsak           : Overlap fitted RIJCOSX, COSX-SCS-MP3, EOM
   Marcus Kettner         : VPT2
   Christian Kollmar      : KDIIS, OOCD, Brueckner-CCSD(T), CCSD density, CASPT2, CASPT2-K
   Simone Kossmann        : Meta GGA functionals, TD-DFT gradient, OOMP2, MP2 Hessian
   Martin Krupicka        : Initial AUTO-CI
   Lucas Lang             : DCDCAS
   Marvin Lechner         : AUTO-CI (C++ implementation), FIC-MRCC
   Dagmar Lenk            : GEPOL surface, SMD
   Dimitrios Liakos       : Extrapolation schemes; Compound Job, initial MDCI parallelization
   Dimitrios Manganas     : Further ROCIS development; embedding schemes
   Dimitrios Pantazis     : SARC Basis sets
   Anastasios Papadopoulos: AUTO-CI, single reference methods and gradients
   Taras Petrenko         : DFT Hessian,TD-DFT gradient, ASA, ECA, R-Raman, ABS, FL, XAS/XES, NRVS
   Peter Pinski           : DLPNO-MP2, DLPNO-MP2 Gradient
   Christoph Reimann      : Effective Core Potentials
   Marius Retegan         : Local ZFS, SOC
   Christoph Riplinger    : Optimizer, TS searches, QM/MM, DLPNO-CCSD(T), (RO)-DLPNO pert. Triples
   Tobias Risthaus        : Range-separated hybrids, TD-DFT gradient, RPA, STAB
   Michael Roemelt        : Original ROCIS implementation
   Masaaki Saitow         : Open-shell DLPNO-CCSD energy and density
   Barbara Sandhoefer     : DKH picture change effects
   Avijit Sen             : IP-ROCIS
   Kantharuban Sivalingam : CASSCF convergence, NEVPT2, FIC-MRCI
   Bernardo de Souza      : ESD, SOC TD-DFT
   Georgi Stoychev        : AutoAux, RI-MP2 NMR, DLPNO-MP2 response
   Willem Van den Heuvel  : Paramagnetic NMR
   Boris Wezisla          : Elementary symmetry handling
   Frank Wennmohs         : Technical directorship


 We gratefully acknowledge several colleagues who have allowed us to
 interface, adapt or use parts of their codes:
   Stefan Grimme, W. Hujo, H. Kruse, P. Pracht,  : VdW corrections, initial TS optimization,
                  C. Bannwarth, S. Ehlert          DFT functionals, gCP, sTDA/sTD-DF
   Ed Valeev, F. Pavosevic, A. Kumar             : LibInt (2-el integral package), F12 methods
   Garnet Chan, S. Sharma, J. Yang, R. Olivares  : DMRG
   Ulf Ekstrom                                   : XCFun DFT Library
   Mihaly Kallay                                 : mrcc  (arbitrary order and MRCC methods)
   Jiri Pittner, Ondrej Demel                    : Mk-CCSD
   Frank Weinhold                                : gennbo (NPA and NBO analysis)
   Christopher J. Cramer and Donald G. Truhlar   : smd solvation model
   Lars Goerigk                                  : TD-DFT with DH, B97 family of functionals
   V. Asgeirsson, H. Jonsson                     : NEB implementation
   FAccTs GmbH                                   : IRC, NEB, NEB-TS, DLPNO-Multilevel, CI-OPT
                                                   MM, QMMM, 2- and 3-layer-ONIOM, Crystal-QMMM,
                                                   LR-CPCM, SF, NACMEs, symmetry and pop. for TD-DFT,
                                                   nearIR, NL-DFT gradient (VV10), updates on ESD,
                                                   ML-optimized integration grids
   S Lehtola, MJT Oliveira, MAL Marques          : LibXC Library
   Liviu Ungur et al                             : ANISO software


 Your calculation uses the libint2 library for the computation of 2-el integrals
 For citations please refer to: http://libint.valeyev.net

 Your ORCA version has been built with support for libXC version: 5.1.0
 For citations please refer to: https://tddft.org/programs/libxc/

 This ORCA versions uses:
   CBLAS   interface :  Fast vector & matrix operations
   LAPACKE interface :  Fast linear algebra routines
   SCALAPACK package :  Parallel linear algebra routines
   Shared memory     :  Shared parallel matrices
   BLAS/LAPACK       :  OpenBLAS 0.3.15  USE64BITINT DYNAMIC_ARCH NO_AFFINITY Prescott SINGLE_THREADED
        Core in use  :  Prescott
   Copyright (c) 2011-2014, The OpenBLAS Project


XCFun DFT library Copyright 2009-2010 Ulf Ekstrom and contributors.
See http://admol.org/xcfun for more information.
This is free software; see the source code for copying conditions.
There is ABSOLUTELY NO WARRANTY; not even for MERCHANTABILITY or FITNESS FOR A PARTICULAR PURPOSE.
For details see the documentation.
Scientific users of this library should cite U. Ekstrom, L. Visscher, R. Bast, A. J. Thorvaldsen and K. Ruud;
J.Chem.Theor.Comp. 2010, DOI: 10.1021/ct100117s
XCFun Version 0.99 

================================================================================

----- Orbital basis set information -----
Your calculation utilizes the basis: ANO-RCC-DZP
   H, He:       P.-O. Widmark, P.-A. Malmqvist, and B. O. Roos, Theor. Chim. Acta 77, 291 (1990).
   s block:     B. O. Roos, V. Veryazov and P.-O. Widmark, Theor. Chem. Acc. 111, 345 (2004).
   p block:     B. O. Roos, R. Lindh, P.-A. Malmqvist, V. Veryazov, and P.-O. Widmark, J. Phys. Chem. A 108, 2851 (2004).
   d block:     B. O. Roos, R. Lindh, P.-A. Malmqvist, V. Veryazov, and P.-O. Widmark, J. Phys. Chem. A 109, 6575 (2005).
   actinides:   B. O. Roos, R. Lindh, P.-A. Malmqvist, V. Veryazov, and P.-O. Widmark, Chem. Phys. Letters 409, 295 (2005).
   lanthanides: B. O. Roos, R. Lindh, P.-A. Malmqvist, V. Veryazov, P.-O. Widmark and A. C. Borin, J. Phys. Chem. A 112, 11431 (2008).

The basis set includes element-specific modifications.

Your calculation utilizes the basis: ANO-RCC-TZP
   H, He:       P.-O. Widmark, P.-A. Malmqvist, and B. O. Roos, Theor. Chim. Acta 77, 291 (1990).
   s block:     B. O. Roos, V. Veryazov and P.-O. Widmark, Theor. Chem. Acc. 111, 345 (2004).
   p block:     B. O. Roos, R. Lindh, P.-A. Malmqvist, V. Veryazov, and P.-O. Widmark, J. Phys. Chem. A 108, 2851 (2004).
   d block:     B. O. Roos, R. Lindh, P.-A. Malmqvist, V. Veryazov, and P.-O. Widmark, J. Phys. Chem. A 109, 6575 (2005).
   actinides:   B. O. Roos, R. Lindh, P.-A. Malmqvist, V. Veryazov, and P.-O. Widmark, Chem. Phys. Letters 409, 295 (2005).
   lanthanides: B. O. Roos, R. Lindh, P.-A. Malmqvist, V. Veryazov, P.-O. Widmark and A. C. Borin, J. Phys. Chem. A 112, 11431 (2008).

----- AuxJ basis set information -----
Your calculation utilizes the AutoAux generation procedure.
  G. L. Stoychev, A. A. Auer, F. Neese, J. Chem. Theory Comput. 13, 554 (2017)

----- AuxC basis set information -----
Your calculation utilizes the AutoAux generation procedure.
  G. L. Stoychev, A. A. Auer, F. Neese, J. Chem. Theory Comput. 13, 554 (2017)

----- AuxJK basis set information -----
Your calculation utilizes the AutoAux generation procedure.
  G. L. Stoychev, A. A. Auer, F. Neese, J. Chem. Theory Comput. 13, 554 (2017)

================================================================================
                                        WARNINGS
                       Please study these warnings very carefully!
================================================================================


Removing linear dependencies from the Orbital basis set:
  S-ok PCD(Thresh=Auto)-ok done ( 0.916 sec)
  Dim=475 Nullspace=0 Removed 0 shells / 0 basis functions

Removing linear dependencies from the AuxJ basis set:
  V-ok PCD(Thresh=Auto)-ok done (29.945 sec)
  Dim=3632 Nullspace=0 Removed 0 shells / 0 basis functions

Removing linear dependencies from the AuxC basis set:
  V-ok PCD(Thresh=Auto)-ok done (30.147 sec)
  Dim=3632 Nullspace=0 Removed 0 shells / 0 basis functions

Removing linear dependencies from the AuxJK basis set:
  V-ok PCD(Thresh=Auto)-ok done (29.714 sec)
  Dim=3632 Nullspace=0 Removed 0 shells / 0 basis functions


WARNING: Found flag for RIJCOSX approximation but no HF exchange needed!
  ===> : RIJCOSX  will be disabled and Split-RI-J is turned on

WARNING: your system is open-shell and RHF/RKS was chosen
  ===> : WILL SWITCH to UHF/UKS


WARNING: Minnesota functionals are quite sensitive to the integration grid.
         see SE Wheeler, KN Houk, JCTC 2010, 6, 395,
             N Mardirossian, M Head-Gordon, JCTC 2016, 12, 4303.
         DEFGRID3 seems to be a minimum grid for reliable results with these functionals!
  ===> : Please increase the integration grid!


INFO   : the flag for use of the SHARK integral package has been found!

================================================================================
                                       INPUT FILE
================================================================================
NAME = input_104.inp
|  1> ! RIJCOSX nofrozencore ReducedPop printbasis
|  2> ! M06L ano-rcc-dzp autoaux
|  3> 
|  4> %maxcore 5000
|  5> %basis
|  6> PCDTrimBas overlap
|  7> PCDTrimAuxJ Coulomb
|  8> PCDTrimAuxJK Coulomb
|  9> PCDTrimAuxC Coulomb
| 10> PCDThresh -1
| 11> end
| 12> 
| 13> %basis
| 14> newgto Cu "ano-rcc-tzp" end
| 15> newgto S "ano-rcc-tzp" end
| 16> end
| 17> 
| 18> %pal
| 19> nprocs 12
| 20> end
| 21> 
| 22> % sym SymThresh 1e-2 end
| 23> * xyz -2 2 
| 24> Cu -1.7316032878379176e-05 1.2709794454948937e-06 9.356260823855904e-06
| 25> S 1.6695609849113946 -0.15293154559995437 -1.5976771621923822
| 26> C 0.8461867232600615 -0.18125787872077193 -3.18454780189779
| 27> S 1.5554588149717836 -0.002310949088439138 1.7200023014295311
| 28> C 0.5843673520685688 0.10773202913407205 3.1320628655521947
| 29> S -1.5556968648537293 0.0022941624580177485 -1.7206578778650021
| 30> C -0.5769741474919138 -0.10706128509210944 -3.1082826956932994
| 31> S -1.6698965919983935 0.15297937663500402 1.5983895006479225
| 32> C -0.8355423430532865 0.17971457084488102 3.1613535949526534
| 33> C -1.4980996470541468 0.26231029223020486 4.296806493920263
| 34> C 1.251672870518794 0.1323680810491582 4.456576323985106
| 35> C 0.4673723801023224 0.2233200801548473 5.644543932977944
| 36> H 2.3438183741630376 0.07486147215622627 4.385059096575932
| 37> C -0.9220812710442892 0.2874927711204151 5.529779360075034
| 38> H -2.5804358046605906 0.31954208896419284 4.373213841428984
| 39> H 1.2110416030152498 0.2227605823624301 6.479365553691796
| 40> H -1.2872629693314377 0.35160235677687074 6.5810278155659665
| 41> C 1.4810449206039353 -0.2608671274622188 -4.283211045300931
| 42> C -1.267257093591506 -0.13238172634013765 -4.474651448162439
| 43> C 0.9394480528016735 -0.28749452106674034 -5.510024888547578
| 44> H 2.5623526918905264 -0.320470228004928 -4.41507010612695
| 45> C -0.4471387172927091 -0.2250617409966353 -5.661348681944205
| 46> H -2.364669076200058 -0.071505850753828 -4.332013799795094
| 47> H 1.1835635855072149 -0.3488926021800039 -6.637196833516267
| 48> H -1.3231109891798942 -0.21482722766882817 -6.42550550177031
| 49> * 
| 50> 
| 51> % eprnmr
| 52> gtensor true
| 53> Nuclei = all H {aiso,adip,aorb,fgrad,rho}
| 54> Nuclei = all Cu {aiso,adip,aorb,fgrad,rho}
| 55> end
| 56> 
| 57>                          ****END OF INPUT****
================================================================================

------------------------------------------------------------------------------
                            SYMMETRY HANDLING SETUP
------------------------------------------------------------------------------

------------------
SYMMETRY DETECTION
------------------
The point group will now be determined using a tolerance of 1.0000e-02.
Splitting atom subsets according to nuclear charge, mass and basis set.
Splitting atom subsets according to distance from the molecule's center.
Identifying relative distance patterns of the atoms.
Splitting atom subsets according to atoms' relative distance patterns.
Bring atoms of each subset into input order.
The molecule is planar.
There is at least one atom subset not centered around the molecule's center.
The molecule does not have a center of inversion.
Analyzing the first atom subset for its symmetry.

WARNING (ORCA_SYM): Atom subset shape of SubsetShape::OffCenterPolygon is inconsistent with a
planar molecule in function AtomSubset::GuessPointGroup(TSymmetryFinder &).

Analyzing the next atom subset for its symmetry.
Testing point group C2v.
Test failed.
Testing point group Cs.
Success!
This point group has been found:    Cs
Largest non-degenerate subgroup:    Cs


Mass-centered symmetry-perfected Cartesians (point group Cs):

Atom          Symmetry-perfected Cartesians (x, y, z; au)
  0       0.000017583549   -0.000032836394    0.000000000000
  1      -3.025478739169    3.162199823140    0.000000000000
  2      -6.025397395255    1.607578751109    0.000000000000
  3       3.250237408286    2.939500228745    0.000000000000
  4       5.923182836477    1.099232039279    0.000000000000
  5      -3.251477259568   -2.939949397308    0.000000000000
  6      -5.878217472713   -1.085292531576    0.000000000000
  7       3.026826536810   -3.162836384538    0.000000000000
  8       5.981502758762   -1.587391371850    0.000000000000
  9       8.130603632472   -2.843324641047    0.000000000000
 10       8.427166155186    2.359099283985    0.000000000000
 11      10.675850038176    0.872712029438    0.000000000000
 12       8.289646696852    4.425657799472    0.000000000000
 13      10.461622859083   -1.755990802247    0.000000000000
 14       8.277352744382   -4.891333262204    0.000000000000
 15      12.253410985065    2.278069733496    0.000000000000
 16      12.450838071061   -2.449096850053    0.000000000000
 17      -8.104852746294    2.811027950164    0.000000000000
 18      -8.461324047068   -2.388548669804    0.000000000000
 19     -10.424292694470    1.788809243399    0.000000000000
 20      -8.356488185522    4.857204630703    0.000000000000
 21     -10.707678530418   -0.834394208385    0.000000000000
 22      -8.189267544335   -4.465217712761    0.000000000000
 23     -12.556870670069    2.253005939511    0.000000000000
 24     -12.151303388490   -2.490223117416    0.000000000000


-----------------------------------------------
SYMMETRY-PERFECTED CARTESIAN COORDINATES (A.U.)
-----------------------------------------------
Warning (ORCA_SYM): Coordinates were not cleaned so far!

------------------
SYMMETRY REDUCTION
------------------
ORCA supports only abelian point groups.
It is now checked, if the determined point group is supported:
Point Group ( Cs    ) is          ... supported

(Re)building abelian point group:
Creating Character Table          ... done
Making direct product table       ... done
Constructing symmetry operations  ... done
Creating atom transfer table      ... done
Creating asymmetric unit          ... done

---------------------
ASYMMETRIC UNIT IN Cs
---------------------
  #  AT     MASS              COORDS (A.U.)             BAS
   0 Cu  63.5500   0.00001758  -0.00003284   0.00000000   0
   1 S   32.0600  -3.02547874   3.16219982   0.00000000   0
   2 C   12.0110  -6.02539740   1.60757875   0.00000000   0
   3 S   32.0600   3.25023741   2.93950023   0.00000000   0
   4 C   12.0110   5.92318284   1.09923204   0.00000000   0
   5 S   32.0600  -3.25147726  -2.93994940   0.00000000   0
   6 C   12.0110  -5.87821747  -1.08529253   0.00000000   0
   7 S   32.0600   3.02682654  -3.16283638   0.00000000   0
   8 C   12.0110   5.98150276  -1.58739137   0.00000000   0
   9 C   12.0110   8.13060363  -2.84332464   0.00000000   0
  10 C   12.0110   8.42716616   2.35909928   0.00000000   0
  11 C   12.0110  10.67585004   0.87271203   0.00000000   0
  12 H    1.0080   8.28964670   4.42565780   0.00000000   0
  13 C   12.0110  10.46162286  -1.75599080   0.00000000   0
  14 H    1.0080   8.27735274  -4.89133326   0.00000000   0
  15 H    1.0080  12.25341099   2.27806973   0.00000000   0
  16 H    1.0080  12.45083807  -2.44909685   0.00000000   0
  17 C   12.0110  -8.10485275   2.81102795   0.00000000   0
  18 C   12.0110  -8.46132405  -2.38854867   0.00000000   0
  19 C   12.0110 -10.42429269   1.78880924   0.00000000   0
  20 H    1.0080  -8.35648819   4.85720463   0.00000000   0
  21 C   12.0110 -10.70767853  -0.83439421   0.00000000   0
  22 H    1.0080  -8.18926754  -4.46521771   0.00000000   0
  23 H    1.0080 -12.55687067   2.25300594   0.00000000   0
  24 H    1.0080 -12.15130339  -2.49022312   0.00000000   0

----------------------
SYMMETRY ADAPTED BASIS
----------------------
The coefficients for the symmetry adapted linear combinations (SALCS)
of basis functions will now be computed:
Number of basis functions         ...   475
Preparing memory                  ... done
Constructing Gamma(red)           ... done
Reducing Gamma(red)               ... done
Constructing SALCs                ... done
Checking SALC integrity           ... nothing suspicious
Normalizing SALCs                 ... done

Storing the symmetry object:
Symmetry file                     ... input_104.sym.tmp
Writing symmetry information      ... done

                       ****************************
                       * Single Point Calculation *
                       ****************************

---------------------------------
CARTESIAN COORDINATES (ANGSTROEM)
---------------------------------
  Cu     0.000009   -0.000017    0.000000
  S     -1.601014    1.673364    0.000000
  C     -3.188503    0.850694    0.000000
  S      1.719952    1.555517    0.000000
  C      3.134413    0.581689    0.000000
  S     -1.720608   -1.555754    0.000000
  C     -3.110619   -0.574312    0.000000
  S      1.601728   -1.673701    0.000000
  C      3.165275   -0.840011    0.000000
  C      4.302530   -1.504623    0.000000
  C      4.459464    1.248382    0.000000
  C      5.649417    0.461819    0.000000
  H      4.386692    2.341957    0.000000
  C      5.536052   -0.929230    0.000000
  H      4.380186   -2.588382    0.000000
  H      6.484226    1.205503    0.000000
  H      6.588700   -1.296006    0.000000
  C     -4.288903    1.487532    0.000000
  C     -4.477540   -1.263966    0.000000
  C     -5.516298    0.946597    0.000000
  H     -4.422063    2.570322    0.000000
  C     -5.666259   -0.441542    0.000000
  H     -4.333574   -2.362891    0.000000
  H     -6.644810    1.192239    0.000000
  H     -6.430193   -1.317769    0.000000

----------------------------
CARTESIAN COORDINATES (A.U.)
----------------------------
  NO LB      ZA    FRAG     MASS         X           Y           Z
   0 Cu   29.0000    0    63.550    0.000018   -0.000033    0.000000
   1 S    16.0000    0    32.060   -3.025479    3.162200    0.000000
   2 C     6.0000    0    12.011   -6.025397    1.607579    0.000000
   3 S    16.0000    0    32.060    3.250237    2.939500    0.000000
   4 C     6.0000    0    12.011    5.923183    1.099232    0.000000
   5 S    16.0000    0    32.060   -3.251477   -2.939949    0.000000
   6 C     6.0000    0    12.011   -5.878217   -1.085293    0.000000
   7 S    16.0000    0    32.060    3.026827   -3.162836    0.000000
   8 C     6.0000    0    12.011    5.981503   -1.587391    0.000000
   9 C     6.0000    0    12.011    8.130604   -2.843325    0.000000
  10 C     6.0000    0    12.011    8.427166    2.359099    0.000000
  11 C     6.0000    0    12.011   10.675850    0.872712    0.000000
  12 H     1.0000    0     1.008    8.289647    4.425658    0.000000
  13 C     6.0000    0    12.011   10.461623   -1.755991    0.000000
  14 H     1.0000    0     1.008    8.277353   -4.891333    0.000000
  15 H     1.0000    0     1.008   12.253411    2.278070    0.000000
  16 H     1.0000    0     1.008   12.450838   -2.449097    0.000000
  17 C     6.0000    0    12.011   -8.104853    2.811028    0.000000
  18 C     6.0000    0    12.011   -8.461324   -2.388549    0.000000
  19 C     6.0000    0    12.011  -10.424293    1.788809    0.000000
  20 H     1.0000    0     1.008   -8.356488    4.857205    0.000000
  21 C     6.0000    0    12.011  -10.707679   -0.834394    0.000000
  22 H     1.0000    0     1.008   -8.189268   -4.465218    0.000000
  23 H     1.0000    0     1.008  -12.556871    2.253006    0.000000
  24 H     1.0000    0     1.008  -12.151303   -2.490223    0.000000

--------------------------------
INTERNAL COORDINATES (ANGSTROEM)
--------------------------------
 Cu     0   0   0     0.000000000000     0.00000000     0.00000000
 S      1   0   0     2.315919333789     0.00000000     0.00000000
 C      2   1   0     1.787989368832   106.33994212     0.00000000
 S      1   2   3     2.319027182229    91.60756192   180.00000000
 C      4   1   2     1.717277823513   103.32686188   180.00000000
 S      1   2   3     2.319663735666    88.38497709     0.00000000
 C      3   2   1     1.427132917766   114.26573227     0.00000000
 S      1   2   3     2.316617832764   179.99275210   180.00000000
 C      5   4   1     1.422034801065   125.79016902     0.00000000
 C      9   5   4     1.317215821363   121.54554344   180.00000085
 C      5   4   1     1.483320427817   118.74434864   180.00000000
 C     11   5   4     1.426417388223   119.82613255   180.00000000
 H     11   5   4     1.095994308842   112.90189260     0.00000000
 C     10   9   5     1.361122116277   124.69070774     0.00000000
 H     10   9   5     1.086538135259   124.40048745   180.00000000
 H     12  11   5     1.118021182517   104.83917432   180.00000000
 H     14  10   9     1.114715670882   135.78273052   180.00000000
 C      3   2   1     1.271394307689   122.54647926   180.00000000
 C      7   3   2     1.531043839394   113.64392857   180.00000000
 C     18   3   2     1.341308462392   126.15667550   180.00000000
 H     18   3   2     1.090947220429   127.07031639     0.00000000
 C     20  18   3     1.396216177200   119.94972313     0.00000000
 H     19   7   3     1.108316033689   109.30874173   180.00000000
 H     20  18   3     1.154936669778   143.93607302   180.00000000
 H     22  20  18     1.162483467265   145.08241922   180.00000000

---------------------------
INTERNAL COORDINATES (A.U.)
---------------------------
 Cu     0   0   0     0.000000000000     0.00000000     0.00000000
 S      1   0   0     4.376453289115     0.00000000     0.00000000
 C      2   1   0     3.378810237456   106.33994212     0.00000000
 S      1   2   3     4.382326271532    91.60756192   180.00000000
 C      4   1   2     3.245184782296   103.32686188   180.00000000
 S      1   2   3     4.383529183198    88.38497709     0.00000000
 C      3   2   1     2.696890371281   114.26573227     0.00000000
 S      1   2   3     4.377773260882   179.99275210   180.00000000
 C      5   4   1     2.687256326919   125.79016902     0.00000000
 C      9   5   4     2.489177161645   121.54554344   180.00000085
 C      5   4   1     2.803069377424   118.74434864   180.00000000
 C     11   5   4     2.695538216405   119.82613255   180.00000000
 H     11   5   4     2.071129088047   112.90189260     0.00000000
 C     10   9   5     2.572148034587   124.69070774     0.00000000
 H     10   9   5     2.053259509702   124.40048745   180.00000000
 H     12  11   5     2.112753846880   104.83917432   180.00000000
 H     14  10   9     2.106507335157   135.78273052   180.00000000
 C      3   2   1     2.402587049759   122.54647926   180.00000000
 C      7   3   2     2.893253555481   113.64392857   180.00000000
 C     18   3   2     2.534705655032   126.15667550   180.00000000
 H     18   3   2     2.061591473173   127.07031639     0.00000000
 C     20  18   3     2.638466198659   119.94972313     0.00000000
 H     19   7   3     2.094413773507   109.30874173   180.00000000
 H     20  18   3     2.182514007903   143.93607302   180.00000000
 H     22  20  18     2.196775388343   145.08241922   180.00000000

---------------------
BASIS SET INFORMATION
---------------------
There are 4 groups of distinct atoms

 Group   1 Type Cu  : 126s75p30d12f4g contracted to 6s5p3d2f1g pattern {212121212121/1515151515/101010/66/4}
 Group   2 Type S   : 85s48p10d4f contracted to 5s4p2d1f pattern {1717171717/12121212/55/4}
 Group   3 Type C   : 42s18p4d contracted to 3s2p1d pattern {141414/99/4}
 Group   4 Type H   : 24s8p3d contracted to 3s2p1d pattern {888/44/3}

Atom   0Cu   basis set group =>   1
Atom   1S    basis set group =>   2
Atom   2C    basis set group =>   3
Atom   3S    basis set group =>   2
Atom   4C    basis set group =>   3
Atom   5S    basis set group =>   2
Atom   6C    basis set group =>   3
Atom   7S    basis set group =>   2
Atom   8C    basis set group =>   3
Atom   9C    basis set group =>   3
Atom  10C    basis set group =>   3
Atom  11C    basis set group =>   3
Atom  12H    basis set group =>   4
Atom  13C    basis set group =>   3
Atom  14H    basis set group =>   4
Atom  15H    basis set group =>   4
Atom  16H    basis set group =>   4
Atom  17C    basis set group =>   3
Atom  18C    basis set group =>   3
Atom  19C    basis set group =>   3
Atom  20H    basis set group =>   4
Atom  21C    basis set group =>   3
Atom  22H    basis set group =>   4
Atom  23H    basis set group =>   4
Atom  24H    basis set group =>   4

-------------------------
BASIS SET IN INPUT FORMAT
-------------------------

 # Basis set for element : H 
 NewGTO H 
 S 8 
   1     188.6144500000      0.0009638500
   2      28.2765960000      0.0074919600
   3       6.4248300000      0.0375954101
   4       1.8150410000      0.1433949804
   5       0.5910630000      0.3486363010
   6       0.2121490000      0.4382973612
   7       0.0798910000      0.1651066105
   8       0.0279620000      0.0210228701
 S 8 
   1     188.6144500000     -0.0013119000
   2      28.2765960000     -0.0103451000
   3       6.4248300000     -0.0504952998
   4       1.8150410000     -0.2073854991
   5       0.5910630000     -0.4350884981
   6       0.2121490000     -0.0247296999
   7       0.0798910000      0.3225259886
   8       0.0279620000      0.7072753770
 S 8 
   1     188.6144500000      0.0024224000
   2      28.2765960000      0.0203381700
   3       6.4248300000      0.0896393498
   4       1.8150410000      0.4422907090
   5       0.5910630000      0.5757143887
   6       0.2121490000     -0.9802889977
   7       0.0798910000     -0.6721537984
   8       0.0279620000      1.1417684974
 P 4 
   1       2.3050000000      0.1127901896
   2       0.8067500000      0.4185075284
   3       0.2823620000      0.4700077282
   4       0.0988270000      0.1826260293
 P 4 
   1       2.3050000000     -0.2108687968
   2       0.8067500000     -0.5943795909
   3       0.2823620000      0.0896888786
   4       0.0988270000      0.8611633869
 D 3 
   1       1.8190000000      0.2705134090
   2       0.7276000000      0.5510124980
   3       0.2910400000      0.3310866388
  end;

 # Basis set for element : C 
 NewGTO C 
 S 14 
   1   50557.5010000000      0.0001128874
   2    7524.7856000000      0.0005295373
   3    1694.3276000000      0.0024500383
   4     472.8227900000      0.0100539847
   5     151.7107500000      0.0354539806
   6      53.9187460000      0.1044071086
   7      20.6593110000      0.2412894918
   8       8.3839760000      0.3834225483
   9       3.5770150000      0.3078514393
  10       1.5471180000      0.0687244299
  11       0.6130130000      0.0002224445
  12       0.2460680000      0.0019767489
  13       0.0990870000      0.0020578594
  14       0.0346800000      0.0004182020
 S 14 
   1   50557.5010000000     -0.0000250742
   2    7524.7856000000     -0.0001175945
   3    1694.3276000000     -0.0005456275
   4     472.8227900000     -0.0022450771
   5     151.7107500000     -0.0080434718
   6      53.9187460000     -0.0244258871
   7      20.6593110000     -0.0613679118
   8       8.3839760000     -0.1177767835
   9       3.5770150000     -0.1550487783
  10       1.5471180000     -0.0193331686
  11       0.6130130000      0.3996930678
  12       0.2460680000      0.5589420949
  13       0.0990870000      0.1711195023
  14       0.0346800000      0.0074562446
 S 14 
   1   50557.5010000000      0.0000161788
   2    7524.7856000000      0.0000749712
   3    1694.3276000000      0.0003573467
   4     472.8227900000      0.0014349316
   5     151.7107500000      0.0055086779
   6      53.9187460000      0.0169149690
   7      20.6593110000      0.0514166524
   8       8.3839760000      0.1137343741
   9       3.5770150000      0.2337183944
  10       1.5471180000     -0.0718378257
  11       0.6130130000     -1.0490908711
  12       0.2460680000     -0.0666273399
  13       0.0990870000      1.0119993798
  14       0.0346800000      0.1656046386
 P 9 
   1      83.3331550000      0.0013446560
   2      19.5576110000      0.0102355550
   3       6.0803650000      0.0452006710
   4       2.1793170000      0.1410756198
   5       0.8651500000      0.3047388085
   6       0.3619440000      0.3995281011
   7       0.1547400000      0.2719163432
   8       0.0654290000      0.0585766933
   9       0.0229000000     -0.0001263813
 P 9 
   1      83.3331550000     -0.0017715885
   2      19.5576110000     -0.0145621810
   3       6.0803650000     -0.0574573357
   4       2.1793170000     -0.2126582848
   5       0.8651500000     -0.5271712924
   6       0.3619440000     -0.0929697730
   7       0.1547400000      0.6630031669
   8       0.0654290000      0.3360877793
   9       0.0229000000      0.0054695244
 D 4 
   1       1.9000000000      0.1424518048
   2       0.6650000000      0.5591973019
   3       0.2327500000      0.4430004380
   4       0.0814630000      0.0410665370
  end;

 # Basis set for element : S 
 NewGTO S 
 S 17 
   1  346348.2300000000      0.0002909200
   2   49391.1460000000      0.0009466500
   3   14610.9900000000      0.0021192300
   4    5187.2095000000      0.0060216101
   5    1980.9676000000      0.0165972602
   6     784.6313900000      0.0468398906
   7     317.3277900000      0.1224258115
   8     130.0197600000      0.2702243534
   9      53.7382080000      0.4054165750
  10      22.3458960000      0.2557152732
  11       9.3332512000      0.0267169303
  12       3.9111868000      0.0039033200
  13       1.6432066000     -0.0020418900
  14       0.6917456000      0.0014903400
  15       0.2916736000     -0.0006210700
  16       0.1231441000      0.0004416700
  17       0.0492576000     -0.0000032400
 S 17 
   1  346348.2300000000     -0.0000810100
   2   49391.1460000000     -0.0002638800
   3   14610.9900000000     -0.0005926300
   4    5187.2095000000     -0.0016876200
   5    1980.9676000000     -0.0047035700
   6     784.6313900000     -0.0135060701
   7     317.3277900000     -0.0371195902
   8     130.0197600000     -0.0911472306
   9      53.7382080000     -0.1778041811
  10      22.3458960000     -0.1706959211
  11       9.3332512000      0.1742316311
  12       3.9111868000      0.6328368240
  13       1.6432066000      0.3588663523
  14       0.6917456000     -0.0009644400
  15       0.2916736000      0.0065994200
  16       0.1231441000     -0.0052226600
  17       0.0492576000      0.0002938500
 S 17 
   1  346348.2300000000      0.0000228000
   2   49391.1460000000      0.0000742100
   3   14610.9900000000      0.0001671900
   4    5187.2095000000      0.0004737200
   5    1980.9676000000      0.0013310600
   6     784.6313900000      0.0037980100
   7     317.3277900000      0.0105810799
   8     130.0197600000      0.0260196998
   9      53.7382080000      0.0527900097
  10      22.3458960000      0.0519187797
  11       9.3332512000     -0.0569282797
  12       3.9111868000     -0.2909518982
  13       1.6432066000     -0.3163282781
  14       0.6917456000      0.2930993782
  15       0.2916736000      0.6678742660
  16       0.1231441000      0.2872519883
  17       0.0492576000      0.0151688699
 S 17 
   1  346348.2300000000     -0.0000234200
   2   49391.1460000000     -0.0000763700
   3   14610.9900000000     -0.0001708900
   4    5187.2095000000     -0.0004899900
   5    1980.9676000000     -0.0013529300
   6     784.6313900000     -0.0039282000
   7     317.3277900000     -0.0106763700
   8     130.0197600000     -0.0266181300
   9      53.7382080000     -0.0518302700
  10      22.3458960000     -0.0536224500
  11       9.3332512000      0.0708061100
  12       3.9111868000      0.2862498100
  13       1.6432066000      0.4962630700
  14       0.6917456000     -1.0710928201
  15       0.2916736000     -0.7920747001
  16       0.1231441000      1.1988185301
  17       0.0492576000      0.3247575000
 S 17 
   1  346348.2300000000      0.0000338900
   2   49391.1460000000      0.0001080700
   3   14610.9900000000      0.0002591100
   4    5187.2095000000      0.0006557500
   5    1980.9676000000      0.0021438200
   6     784.6313900000      0.0051887500
   7     317.3277900000      0.0175307300
   8     130.0197600000      0.0367282101
   9      53.7382080000      0.0984078002
  10      22.3458960000      0.0619843901
  11       9.3332512000     -0.0870655502
  12       3.9111868000     -0.7402903815
  13       1.6432066000     -0.2511528605
  14       0.6917456000      3.1197276262
  15       0.2916736000     -3.2657334365
  16       0.1231441000      0.4920158210
  17       0.0492576000      0.8345623917
 P 12 
   1    1129.1269000000      0.0009058600
   2     274.0351500000      0.0060003300
   3      97.4025840000      0.0253116602
   4      38.0855180000      0.0919894107
   5      15.4710330000      0.2416502819
   6       6.4056590000      0.4102909632
   7       2.6812828000      0.3521928728
   8       1.1300050000      0.0828164507
   9       0.4783995000      0.0000928000
  10       0.2031805000     -0.0022389700
  11       0.0864923000     -0.0013105000
  12       0.0345969000     -0.0002209200
 P 12 
   1    1129.1269000000     -0.0002245400
   2     274.0351500000     -0.0014885000
   3      97.4025840000     -0.0063494199
   4      38.0855180000     -0.0234428198
   5      15.4710330000     -0.0637025693
   6       6.4056590000     -0.1119708288
   7       2.6812828000     -0.1034727789
   8       1.1300050000      0.1090388789
   9       0.4783995000      0.4183874056
  10       0.2031805000      0.4369409054
  11       0.0864923000      0.1861970080
  12       0.0345969000      0.0283711897
 P 12 
   1    1129.1269000000      0.0002148100
   2     274.0351500000      0.0013786800
   3      97.4025840000      0.0061270600
   4      38.0855180000      0.0217045700
   5      15.4710330000      0.0624373400
   6       6.4056590000      0.1010861900
   7       2.6812828000      0.1170823100
   8       1.1300050000     -0.1626182800
   9       0.4783995000     -0.6646128299
  10       0.2031805000     -0.0025671900
  11       0.0864923000      0.7102817299
  12       0.0345969000      0.3213441399
 P 12 
   1    1129.1269000000     -0.0003343800
   2     274.0351500000     -0.0018333100
   3      97.4025840000     -0.0098956400
   4      38.0855180000     -0.0285233600
   5      15.4710330000     -0.1046413801
   6       6.4056590000     -0.1132883801
   7       2.6812828000     -0.2785634503
   8       1.1300050000      0.7352483107
   9       0.4783995000      0.6335807606
  10       0.2031805000     -1.5012724614
  11       0.0864923000      0.2467031202
  12       0.0345969000      0.7157853907
 D 5 
   1       3.0053679000      0.0358149997
   2       1.2172976000      0.1673418584
   3       0.4930556000      0.5760525045
   4       0.1997078000      0.3501406566
   5       0.0798831000      0.0446746096
 D 5 
   1       3.0053679000     -0.0833935699
   2       1.2172976000      0.5141401396
   3       0.4930556000      0.5282255395
   4       0.1997078000     -0.8555141893
   5       0.0798831000     -0.2680324398
 F 4 
   1       1.1000988000      0.2161817184
   2       0.5272133000      0.5455285260
   3       0.2526627000      0.3289330076
   4       0.1010651000      0.0748646694
  end;

 # Basis set for element : Cu
 NewGTO Cu
 S 21 
   1  9148883.0000000000      0.0001172200
   2  1369956.0000000000      0.0003315500
   3  311782.6000000000      0.0008824300
   4   88318.8000000000      0.0021722900
   5   28815.5300000000      0.0052954701
   6   10403.4600000000      0.0129663001
   7    4057.7910000000      0.0318805003
   8    1682.9740000000      0.0757656907
   9     733.7543000000      0.1624463715
  10     333.2677000000      0.2843595927
  11     156.4338000000      0.3417364333
  12      74.6972100000      0.2095508720
  13      33.3226200000      0.0354475103
  14      16.6223700000     -0.0024399600
  15       8.2082600000      0.0014699000
  16       3.6094000000     -0.0006437900
  17       1.6834490000      0.0002473800
  18       0.7337570000     -0.0000811800
  19       0.1102070000      0.0000161500
  20       0.0387860000     -0.0000123300
  21       0.0155140000      0.0000045200
 S 21 
   1  9148883.0000000000     -0.0000367500
   2  1369956.0000000000     -0.0001040300
   3  311782.6000000000     -0.0002773300
   4   88318.8000000000     -0.0006841700
   5   28815.5300000000     -0.0016768600
   6   10403.4600000000     -0.0041346000
   7    4057.7910000000     -0.0103512700
   8    1682.9740000000     -0.0253479100
   9     733.7543000000     -0.0583694699
  10     333.2677000000     -0.1167328398
  11     156.4338000000     -0.1846685996
  12      74.6972100000     -0.1470089897
  13      33.3226200000      0.1848325696
  14      16.6223700000      0.5677360889
  15       8.2082600000      0.3795609193
  16       3.6094000000      0.0470375499
  17       1.6834490000     -0.0007278300
  18       0.7337570000      0.0010297600
  19       0.1102070000     -0.0000702000
  20       0.0387860000      0.0000709000
  21       0.0155140000     -0.0000245400
 S 21 
   1  9148883.0000000000      0.0000138300
   2  1369956.0000000000      0.0000391400
   3  311782.6000000000      0.0001043900
   4   88318.8000000000      0.0002574500
   5   28815.5300000000      0.0006320300
   6   10403.4600000000      0.0015571800
   7    4057.7910000000      0.0039165900
   8    1682.9740000000      0.0095947599
   9     733.7543000000      0.0223883699
  10     333.2677000000      0.0452860597
  11     156.4338000000      0.0749837795
  12      74.6972100000      0.0618816996
  13      33.3226200000     -0.0904732694
  14      16.6223700000     -0.3928847174
  15       8.2082600000     -0.3566495576
  16       3.6094000000      0.3455479277
  17       1.6834490000      0.7063919653
  18       0.7337570000      0.2533591083
  19       0.1102070000      0.0065874900
  20       0.0387860000     -0.0004424700
  21       0.0155140000      0.0007233800
 S 21 
   1  9148883.0000000000     -0.0000027100
   2  1369956.0000000000     -0.0000076600
   3  311782.6000000000     -0.0000204700
   4   88318.8000000000     -0.0000503000
   5   28815.5300000000     -0.0001244200
   6   10403.4600000000     -0.0003026900
   7    4057.7910000000     -0.0007762800
   8    1682.9740000000     -0.0018524000
   9     733.7543000000     -0.0044827000
  10     333.2677000000     -0.0086602401
  11     156.4338000000     -0.0154472601
  12      74.6972100000     -0.0108986401
  13      33.3226200000      0.0146786701
  14      16.6223700000      0.0915412206
  15       8.2082600000      0.0633085704
  16       3.6094000000     -0.0609387904
  17       1.6834490000     -0.2714854517
  18       0.7337570000     -0.1013894406
  19       0.1102070000      0.7121218043
  20       0.0387860000      0.3461317521
  21       0.0155140000      0.0719870904
 S 21 
   1  9148883.0000000000      0.0000034600
   2  1369956.0000000000      0.0000097900
   3  311782.6000000000      0.0000262600
   4   88318.8000000000      0.0000639200
   5   28815.5300000000      0.0001608700
   6   10403.4600000000      0.0003802300
   7    4057.7910000000      0.0010171600
   8    1682.9740000000      0.0022915200
   9     733.7543000000      0.0059749700
  10     333.2677000000      0.0104469500
  11     156.4338000000      0.0215158300
  12      74.6972100000      0.0103012800
  13      33.3226200000     -0.0098432400
  14      16.6223700000     -0.1429262997
  15       8.2082600000     -0.0561270699
  16       3.6094000000      0.0913564998
  17       1.6834490000      0.4583140189
  18       0.7337570000     -0.1972673995
  19       0.1102070000     -1.3031015670
  20       0.0387860000      0.8797556780
  21       0.0155140000      0.5731088887
 S 21 
   1  9148883.0000000000     -0.0000140100
   2  1369956.0000000000     -0.0000395900
   3  311782.6000000000     -0.0001061200
   4   88318.8000000000     -0.0002590000
   5   28815.5300000000     -0.0006486500
   6   10403.4600000000     -0.0015477000
   7    4057.7910000000     -0.0040834200
   8    1682.9740000000     -0.0094020600
   9     733.7543000000     -0.0238911700
  10     333.2677000000     -0.0435983200
  11     156.4338000000     -0.0858885701
  12      74.6972100000     -0.0473486501
  13      33.3226200000      0.0638259201
  14      16.6223700000      0.5936354107
  15       8.2082600000      0.4150606205
  16       3.6094000000     -1.7002794219
  17       1.6834490000     -0.2979995603
  18       0.7337570000      1.7071942519
  19       0.1102070000     -0.6560005307
  20       0.0387860000     -0.3192452404
  21       0.0155140000      0.6177245607
 P 15 
   1    9713.2530000000      0.0003998700
   2    2300.8890000000      0.0021015700
   3     746.7706000000      0.0100109700
   4     284.6806000000      0.0383603898
   5     119.9999000000      0.1162675595
   6      54.0738600000      0.2589983089
   7      25.3732100000      0.3842822584
   8      12.2096200000      0.2991120987
   9       5.7574210000      0.0800067197
  10       2.6734020000      0.0031944000
  11       1.1868350000      0.0014725200
  12       0.4815930000     -0.0002339100
  13       0.1926370000      0.0002076100
  14       0.0770550000     -0.0000896300
  15       0.0308220000      0.0000278300
 P 15 
   1    9713.2530000000     -0.0001487900
   2    2300.8890000000     -0.0007826200
   3     746.7706000000     -0.0037622900
   4     284.6806000000     -0.0145796799
   5     119.9999000000     -0.0457109297
   6      54.0738600000     -0.1059301293
   7      25.3732100000     -0.1683622789
   8      12.2096200000     -0.1037321293
   9       5.7574210000      0.2108315487
  10       2.6734020000      0.4891644269
  11       1.1868350000      0.3846863776
  12       0.4815930000      0.0852933795
  13       0.1926370000     -0.0016104500
  14       0.0770550000      0.0020653000
  15       0.0308220000     -0.0006417500
 P 15 
   1    9713.2530000000      0.0000505300
   2    2300.8890000000      0.0002671900
   3     746.7706000000      0.0012771800
   4     284.6806000000      0.0049976000
   5     119.9999000000      0.0156137599
   6      54.0738600000      0.0368970098
   7      25.3732100000      0.0579646897
   8      12.2096200000      0.0379196598
   9       5.7574210000     -0.1170649894
  10       2.6734020000     -0.2091225689
  11       1.1868350000     -0.0580053197
  12       0.4815930000      0.1643073591
  13       0.1926370000      0.5288546572
  14       0.0770550000      0.3737301580
  15       0.0308220000      0.0839986596
 P 15 
   1    9713.2530000000     -0.0001587800
   2    2300.8890000000     -0.0008535900
   3     746.7706000000     -0.0039991900
   4     284.6806000000     -0.0160809199
   5     119.9999000000     -0.0492486397
   6      54.0738600000     -0.1216567894
   7      25.3732100000     -0.1771336691
   8      12.2096200000     -0.1444819692
   9       5.7574210000      0.6474331066
  10       2.6734020000      0.5479769171
  11       1.1868350000     -0.7818032059
  12       0.4815930000     -0.5260777772
  13       0.1926370000      0.2243717688
  14       0.0770550000      0.3339245282
  15       0.0308220000      0.1444637392
 P 15 
   1    9713.2530000000      0.0001267900
   2    2300.8890000000      0.0006839700
   3     746.7706000000      0.0032029100
   4     284.6806000000      0.0130135100
   5     119.9999000000      0.0402137099
   6      54.0738600000      0.1015010898
   7      25.3732100000      0.1370095397
   8      12.2096200000      0.1062897198
   9       5.7574210000     -0.8339026482
  10       2.6734020000      0.1441200197
  11       1.1868350000      0.9830123878
  12       0.4815930000     -0.5295641788
  13       0.1926370000     -0.7530398383
  14       0.0770550000      0.4428869990
  15       0.0308220000      0.5751158887
 D 10 
   1     249.3497000000      0.0013456100
   2      74.6383700000      0.0108098300
   3      28.3764100000      0.0473379301
   4      11.9489300000      0.1377258202
   5       5.3176460000      0.2626383304
   6       2.3644170000      0.3347040105
   7       1.0123860000      0.3100059705
   8       0.4067730000      0.2131681903
   9       0.1473310000      0.0786536501
  10       0.0589320000      0.0060309600
 D 10 
   1     249.3497000000     -0.0015835900
   2      74.6383700000     -0.0128111601
   3      28.3764100000     -0.0564267902
   4      11.9489300000     -0.1664139307
   5       5.3176460000     -0.3510601415
   6       2.3644170000     -0.2371789010
   7       1.0123860000      0.2199464110
   8       0.4067730000      0.4884136321
   9       0.1473310000      0.2953713113
  10       0.0589320000      0.0429553902
 D 10 
   1     249.3497000000      0.0019111600
   2      74.6383700000      0.0177249500
   3      28.3764100000      0.0705638099
   4      11.9489300000      0.2290610097
   5       5.3176460000      0.4393851094
   6       2.3644170000     -0.2673990797
   7       1.0123860000     -0.6259062392
   8       0.4067730000      0.1221133998
   9       0.1473310000      0.5368362893
  10       0.0589320000      0.1975005497
 F 6 
   1      15.4333000000      0.0368206299
   2       6.1172000000      0.2459141793
   3       2.4246000000      0.5011268786
   4       0.9610000000      0.3585064790
   5       0.3809000000      0.1472806196
   6       0.1510000000      0.0256474799
 F 6 
   1      15.4333000000     -0.0620033603
   2       6.1172000000     -0.5287666929
   3       2.4246000000     -0.2907838616
   4       0.9610000000      0.5212415728
   5       0.3809000000      0.3753220521
   6       0.1510000000      0.1065979806
 G 4 
   1       8.7286000000      0.1690384791
   2       3.4308000000      0.6065418469
   3       1.3485000000      0.3797989880
   4       0.5300000000      0.1036775695
  end;

---------------------------------
AUXILIARY/J BASIS SET INFORMATION
---------------------------------
There are 4 groups of distinct atoms

 Group   1 Type Cu  : 23s20p18d17f13g5h contracted to 23s20p18d17f13g5h pattern {11111111111111111111111/11111111111111111111/111111111111111111/11111111111111111/1111111111111/11111}
 Group   2 Type S   : 20s17p16d7f contracted to 20s17p16d7f pattern {11111111111111111111/11111111111111111/1111111111111111/1111111}
 Group   3 Type C   : 17s14p13d4f contracted to 17s14p13d4f pattern {11111111111111111/11111111111111/1111111111111/1111}
 Group   4 Type H   : 12s5p4d3f contracted to 12s5p4d3f pattern {111111111111/11111/1111/111}

Atom   0Cu   basis set group =>   1
Atom   1S    basis set group =>   2
Atom   2C    basis set group =>   3
Atom   3S    basis set group =>   2
Atom   4C    basis set group =>   3
Atom   5S    basis set group =>   2
Atom   6C    basis set group =>   3
Atom   7S    basis set group =>   2
Atom   8C    basis set group =>   3
Atom   9C    basis set group =>   3
Atom  10C    basis set group =>   3
Atom  11C    basis set group =>   3
Atom  12H    basis set group =>   4
Atom  13C    basis set group =>   3
Atom  14H    basis set group =>   4
Atom  15H    basis set group =>   4
Atom  16H    basis set group =>   4
Atom  17C    basis set group =>   3
Atom  18C    basis set group =>   3
Atom  19C    basis set group =>   3
Atom  20H    basis set group =>   4
Atom  21C    basis set group =>   3
Atom  22H    basis set group =>   4
Atom  23H    basis set group =>   4
Atom  24H    basis set group =>   4

-------------------------------------
AUXILIARY/J BASIS SET IN INPUT FORMAT
-------------------------------------

 # Auxiliary/J basis set for element : H 
 NewAuxJGTO H 
 S 1 
   1      35.9414656527      1.0000000000
 S 1 
   1      19.9674809182      1.0000000000
 S 1 
   1      11.0930449545      1.0000000000
 S 1 
   1       6.1628027525      1.0000000000
 S 1 
   1       3.4237793070      1.0000000000
 S 1 
   1       1.9020996150      1.0000000000
 S 1 
   1       1.0567220083      1.0000000000
 S 1 
   1       0.5870677824      1.0000000000
 S 1 
   1       0.3261487680      1.0000000000
 S 1 
   1       0.1811937600      1.0000000000
 S 1 
   1       0.1006632000      1.0000000000
 S 1 
   1       0.0559240000      1.0000000000
 P 1 
   1       2.0286240000      1.0000000000
 P 1 
   1       1.0143120000      1.0000000000
 P 1 
   1       0.5071560000      1.0000000000
 P 1 
   1       0.2535780000      1.0000000000
 P 1 
   1       0.1267890000      1.0000000000
 D 1 
   1       2.1046197920      1.0000000000
 D 1 
   1       0.9566453600      1.0000000000
 D 1 
   1       0.4348388000      1.0000000000
 D 1 
   1       0.1976540000      1.0000000000
 F 1 
   1       1.8869562800      1.0000000000
 F 1 
   1       0.8577074000      1.0000000000
 F 1 
   1       0.3898670000      1.0000000000
  end;

 # Auxiliary/J basis set for element : C 
 NewAuxJGTO C 
 S 1 
   1     556.1930524224      1.0000000000
 S 1 
   1     308.9961402347      1.0000000000
 S 1 
   1     171.6645223526      1.0000000000
 S 1 
   1      95.3691790848      1.0000000000
 S 1 
   1      52.9828772693      1.0000000000
 S 1 
   1      29.4349318163      1.0000000000
 S 1 
   1      16.3527398979      1.0000000000
 S 1 
   1       9.0848554989      1.0000000000
 S 1 
   1       5.0471419438      1.0000000000
 S 1 
   1       2.8039677466      1.0000000000
 S 1 
   1       1.5577598592      1.0000000000
 S 1 
   1       0.8654221440      1.0000000000
 S 1 
   1       0.4807900800      1.0000000000
 S 1 
   1       0.2671056000      1.0000000000
 S 1 
   1       0.1483920000      1.0000000000
 S 1 
   1       0.0824400000      1.0000000000
 S 1 
   1       0.0458000000      1.0000000000
 P 1 
   1      95.3691790848      1.0000000000
 P 1 
   1      52.9828772693      1.0000000000
 P 1 
   1      29.4349318163      1.0000000000
 P 1 
   1      16.3527398979      1.0000000000
 P 1 
   1       9.0848554989      1.0000000000
 P 1 
   1       5.0471419438      1.0000000000
 P 1 
   1       2.8039677466      1.0000000000
 P 1 
   1       1.5577598592      1.0000000000
 P 1 
   1       0.8654221440      1.0000000000
 P 1 
   1       0.4807900800      1.0000000000
 P 1 
   1       0.2671056000      1.0000000000
 P 1 
   1       0.1483920000      1.0000000000
 P 1 
   1       0.0824400000      1.0000000000
 P 1 
   1       0.0458000000      1.0000000000
 D 1 
   1      52.9828772693      1.0000000000
 D 1 
   1      29.4349318163      1.0000000000
 D 1 
   1      16.3527398979      1.0000000000
 D 1 
   1       9.0848554989      1.0000000000
 D 1 
   1       5.0471419438      1.0000000000
 D 1 
   1       2.8039677466      1.0000000000
 D 1 
   1       1.5577598592      1.0000000000
 D 1 
   1       0.8654221440      1.0000000000
 D 1 
   1       0.4807900800      1.0000000000
 D 1 
   1       0.2671056000      1.0000000000
 D 1 
   1       0.1483920000      1.0000000000
 D 1 
   1       0.0824400000      1.0000000000
 D 1 
   1       0.0458000000      1.0000000000
 F 1 
   1       1.1112572240      1.0000000000
 F 1 
   1       0.5051169200      1.0000000000
 F 1 
   1       0.2295986000      1.0000000000
 F 1 
   1       0.1043630000      1.0000000000
  end;

 # Auxiliary/J basis set for element : S 
 NewAuxJGTO S 
 S 1 
   1    4900.5494839448      1.0000000000
 S 1 
   1    2722.5274910805      1.0000000000
 S 1 
   1    1512.5152728225      1.0000000000
 S 1 
   1     840.2862626792      1.0000000000
 S 1 
   1     466.8257014884      1.0000000000
 S 1 
   1     259.3476119380      1.0000000000
 S 1 
   1     144.0820066322      1.0000000000
 S 1 
   1      80.0455592401      1.0000000000
 S 1 
   1      44.4697551334      1.0000000000
 S 1 
   1      24.7054195186      1.0000000000
 S 1 
   1      13.7252330659      1.0000000000
 S 1 
   1       7.6251294810      1.0000000000
 S 1 
   1       4.2361830450      1.0000000000
 S 1 
   1       2.3534350250      1.0000000000
 S 1 
   1       1.3074639028      1.0000000000
 S 1 
   1       0.7263688349      1.0000000000
 S 1 
   1       0.4035382416      1.0000000000
 S 1 
   1       0.2241879120      1.0000000000
 S 1 
   1       0.1245488400      1.0000000000
 S 1 
   1       0.0691938000      1.0000000000
 P 1 
   1     840.2862626792      1.0000000000
 P 1 
   1     466.8257014884      1.0000000000
 P 1 
   1     259.3476119380      1.0000000000
 P 1 
   1     144.0820066322      1.0000000000
 P 1 
   1      80.0455592401      1.0000000000
 P 1 
   1      44.4697551334      1.0000000000
 P 1 
   1      24.7054195186      1.0000000000
 P 1 
   1      13.7252330659      1.0000000000
 P 1 
   1       7.6251294810      1.0000000000
 P 1 
   1       4.2361830450      1.0000000000
 P 1 
   1       2.3534350250      1.0000000000
 P 1 
   1       1.3074639028      1.0000000000
 P 1 
   1       0.7263688349      1.0000000000
 P 1 
   1       0.4035382416      1.0000000000
 P 1 
   1       0.2241879120      1.0000000000
 P 1 
   1       0.1245488400      1.0000000000
 P 1 
   1       0.0691938000      1.0000000000
 D 1 
   1     466.8257014884      1.0000000000
 D 1 
   1     259.3476119380      1.0000000000
 D 1 
   1     144.0820066322      1.0000000000
 D 1 
   1      80.0455592401      1.0000000000
 D 1 
   1      44.4697551334      1.0000000000
 D 1 
   1      24.7054195186      1.0000000000
 D 1 
   1      13.7252330659      1.0000000000
 D 1 
   1       7.6251294810      1.0000000000
 D 1 
   1       4.2361830450      1.0000000000
 D 1 
   1       2.3534350250      1.0000000000
 D 1 
   1       1.3074639028      1.0000000000
 D 1 
   1       0.7263688349      1.0000000000
 D 1 
   1       0.4035382416      1.0000000000
 D 1 
   1       0.2241879120      1.0000000000
 D 1 
   1       0.1245488400      1.0000000000
 D 1 
   1       0.0691938000      1.0000000000
 F 1 
   1      12.9797314099      1.0000000000
 F 1 
   1       5.8998779136      1.0000000000
 F 1 
   1       2.6817626880      1.0000000000
 F 1 
   1       1.2189830400      1.0000000000
 F 1 
   1       0.5540832000      1.0000000000
 F 1 
   1       0.2518560000      1.0000000000
 F 1 
   1       0.1144800000      1.0000000000
  end;

 # Auxiliary/J basis set for element : Cu
 NewAuxJGTO Cu
 S 1 
   1   12815.8936556437      1.0000000000
 S 1 
   1    7119.9409198021      1.0000000000
 S 1 
   1    3955.5227332234      1.0000000000
 S 1 
   1    2197.5126295685      1.0000000000
 S 1 
   1    1220.8403497603      1.0000000000
 S 1 
   1     678.2446387557      1.0000000000
 S 1 
   1     376.8025770865      1.0000000000
 S 1 
   1     209.3347650481      1.0000000000
 S 1 
   1     116.2970916934      1.0000000000
 S 1 
   1      64.6094953852      1.0000000000
 S 1 
   1      35.8941641029      1.0000000000
 S 1 
   1      19.9412022794      1.0000000000
 S 1 
   1      11.0784457108      1.0000000000
 S 1 
   1       6.1546920615      1.0000000000
 S 1 
   1       3.4192733675      1.0000000000
 S 1 
   1       1.8995963153      1.0000000000
 S 1 
   1       1.0553312863      1.0000000000
 S 1 
   1       0.5862951590      1.0000000000
 S 1 
   1       0.3257195328      1.0000000000
 S 1 
   1       0.1809552960      1.0000000000
 S 1 
   1       0.1005307200      1.0000000000
 S 1 
   1       0.0558504000      1.0000000000
 S 1 
   1       0.0310280000      1.0000000000
 P 1 
   1    3281.6792962385      1.0000000000
 P 1 
   1    1823.1551645769      1.0000000000
 P 1 
   1    1012.8639803205      1.0000000000
 P 1 
   1     562.7022112892      1.0000000000
 P 1 
   1     312.6123396051      1.0000000000
 P 1 
   1     173.6735220028      1.0000000000
 P 1 
   1      96.4852900016      1.0000000000
 P 1 
   1      53.6029388898      1.0000000000
 P 1 
   1      29.7794104943      1.0000000000
 P 1 
   1      16.5441169413      1.0000000000
 P 1 
   1       9.1911760785      1.0000000000
 P 1 
   1       5.1062089325      1.0000000000
 P 1 
   1       2.8367827403      1.0000000000
 P 1 
   1       1.5759904113      1.0000000000
 P 1 
   1       0.8755502285      1.0000000000
 P 1 
   1       0.4864167936      1.0000000000
 P 1 
   1       0.2702315520      1.0000000000
 P 1 
   1       0.1501286400      1.0000000000
 P 1 
   1       0.0834048000      1.0000000000
 P 1 
   1       0.0463360000      1.0000000000
 D 1 
   1    1347.4833218853      1.0000000000
 D 1 
   1     748.6018454918      1.0000000000
 D 1 
   1     415.8899141621      1.0000000000
 D 1 
   1     231.0499523123      1.0000000000
 D 1 
   1     128.3610846179      1.0000000000
 D 1 
   1      71.3117136766      1.0000000000
 D 1 
   1      39.6176187092      1.0000000000
 D 1 
   1      22.0097881718      1.0000000000
 D 1 
   1      12.2276600954      1.0000000000
 D 1 
   1       6.7931444975      1.0000000000
 D 1 
   1       3.7739691653      1.0000000000
 D 1 
   1       2.0966495363      1.0000000000
 D 1 
   1       1.1648052979      1.0000000000
 D 1 
   1       0.6471140544      1.0000000000
 D 1 
   1       0.3595078080      1.0000000000
 D 1 
   1       0.1997265600      1.0000000000
 D 1 
   1       0.1109592000      1.0000000000
 D 1 
   1       0.0616440000      1.0000000000
 F 1 
   1    1089.9683674044      1.0000000000
 F 1 
   1     605.5379818913      1.0000000000
 F 1 
   1     336.4099899396      1.0000000000
 F 1 
   1     186.8944388553      1.0000000000
 F 1 
   1     103.8302438085      1.0000000000
 F 1 
   1      57.6834687825      1.0000000000
 F 1 
   1      32.0463715458      1.0000000000
 F 1 
   1      17.8035397477      1.0000000000
 F 1 
   1       9.8908554154      1.0000000000
 F 1 
   1       5.4949196752      1.0000000000
 F 1 
   1       3.0527331529      1.0000000000
 F 1 
   1       1.6959628627      1.0000000000
 F 1 
   1       0.9422015904      1.0000000000
 F 1 
   1       0.5234453280      1.0000000000
 F 1 
   1       0.2908029600      1.0000000000
 F 1 
   1       0.1615572000      1.0000000000
 F 1 
   1       0.0897540000      1.0000000000
 G 1 
   1     136.3487739404      1.0000000000
 G 1 
   1      75.7493188558      1.0000000000
 G 1 
   1      42.0829549199      1.0000000000
 G 1 
   1      23.3794193999      1.0000000000
 G 1 
   1      12.9885663333      1.0000000000
 G 1 
   1       7.2158701852      1.0000000000
 G 1 
   1       4.0088167695      1.0000000000
 G 1 
   1       2.2271204275      1.0000000000
 G 1 
   1       1.2372891264      1.0000000000
 G 1 
   1       0.6873828480      1.0000000000
 G 1 
   1       0.3818793600      1.0000000000
 G 1 
   1       0.2121552000      1.0000000000
 G 1 
   1       0.1178640000      1.0000000000
 H 1 
   1       5.8747580812      1.0000000000
 H 1 
   1       2.5542426440      1.0000000000
 H 1 
   1       1.1105402800      1.0000000000
 H 1 
   1       0.4828436000      1.0000000000
 H 1 
   1       0.2099320000      1.0000000000
  end;

---------------------------------
AUXILIARY/C BASIS SET INFORMATION
---------------------------------
There are 4 groups of distinct atoms

 Group   1 Type Cu  : 23s20p18d17f13g5h contracted to 23s20p18d17f13g5h pattern {11111111111111111111111/11111111111111111111/111111111111111111/11111111111111111/1111111111111/11111}
 Group   2 Type S   : 20s17p16d7f contracted to 20s17p16d7f pattern {11111111111111111111/11111111111111111/1111111111111111/1111111}
 Group   3 Type C   : 17s14p13d4f contracted to 17s14p13d4f pattern {11111111111111111/11111111111111/1111111111111/1111}
 Group   4 Type H   : 12s5p4d3f contracted to 12s5p4d3f pattern {111111111111/11111/1111/111}

Atom   0Cu   basis set group =>   1
Atom   1S    basis set group =>   2
Atom   2C    basis set group =>   3
Atom   3S    basis set group =>   2
Atom   4C    basis set group =>   3
Atom   5S    basis set group =>   2
Atom   6C    basis set group =>   3
Atom   7S    basis set group =>   2
Atom   8C    basis set group =>   3
Atom   9C    basis set group =>   3
Atom  10C    basis set group =>   3
Atom  11C    basis set group =>   3
Atom  12H    basis set group =>   4
Atom  13C    basis set group =>   3
Atom  14H    basis set group =>   4
Atom  15H    basis set group =>   4
Atom  16H    basis set group =>   4
Atom  17C    basis set group =>   3
Atom  18C    basis set group =>   3
Atom  19C    basis set group =>   3
Atom  20H    basis set group =>   4
Atom  21C    basis set group =>   3
Atom  22H    basis set group =>   4
Atom  23H    basis set group =>   4
Atom  24H    basis set group =>   4

-------------------------------------
AUXILIARY/C BASIS SET IN INPUT FORMAT
-------------------------------------

 # Auxiliary/C basis set for element : H 
 NewAuxCGTO H 
 S 1 
   1      35.9414656527      1.0000000000
 S 1 
   1      19.9674809182      1.0000000000
 S 1 
   1      11.0930449545      1.0000000000
 S 1 
   1       6.1628027525      1.0000000000
 S 1 
   1       3.4237793070      1.0000000000
 S 1 
   1       1.9020996150      1.0000000000
 S 1 
   1       1.0567220083      1.0000000000
 S 1 
   1       0.5870677824      1.0000000000
 S 1 
   1       0.3261487680      1.0000000000
 S 1 
   1       0.1811937600      1.0000000000
 S 1 
   1       0.1006632000      1.0000000000
 S 1 
   1       0.0559240000      1.0000000000
 P 1 
   1       2.0286240000      1.0000000000
 P 1 
   1       1.0143120000      1.0000000000
 P 1 
   1       0.5071560000      1.0000000000
 P 1 
   1       0.2535780000      1.0000000000
 P 1 
   1       0.1267890000      1.0000000000
 D 1 
   1       2.1046197920      1.0000000000
 D 1 
   1       0.9566453600      1.0000000000
 D 1 
   1       0.4348388000      1.0000000000
 D 1 
   1       0.1976540000      1.0000000000
 F 1 
   1       1.8869562800      1.0000000000
 F 1 
   1       0.8577074000      1.0000000000
 F 1 
   1       0.3898670000      1.0000000000
  end;

 # Auxiliary/C basis set for element : C 
 NewAuxCGTO C 
 S 1 
   1     556.1930524224      1.0000000000
 S 1 
   1     308.9961402347      1.0000000000
 S 1 
   1     171.6645223526      1.0000000000
 S 1 
   1      95.3691790848      1.0000000000
 S 1 
   1      52.9828772693      1.0000000000
 S 1 
   1      29.4349318163      1.0000000000
 S 1 
   1      16.3527398979      1.0000000000
 S 1 
   1       9.0848554989      1.0000000000
 S 1 
   1       5.0471419438      1.0000000000
 S 1 
   1       2.8039677466      1.0000000000
 S 1 
   1       1.5577598592      1.0000000000
 S 1 
   1       0.8654221440      1.0000000000
 S 1 
   1       0.4807900800      1.0000000000
 S 1 
   1       0.2671056000      1.0000000000
 S 1 
   1       0.1483920000      1.0000000000
 S 1 
   1       0.0824400000      1.0000000000
 S 1 
   1       0.0458000000      1.0000000000
 P 1 
   1      95.3691790848      1.0000000000
 P 1 
   1      52.9828772693      1.0000000000
 P 1 
   1      29.4349318163      1.0000000000
 P 1 
   1      16.3527398979      1.0000000000
 P 1 
   1       9.0848554989      1.0000000000
 P 1 
   1       5.0471419438      1.0000000000
 P 1 
   1       2.8039677466      1.0000000000
 P 1 
   1       1.5577598592      1.0000000000
 P 1 
   1       0.8654221440      1.0000000000
 P 1 
   1       0.4807900800      1.0000000000
 P 1 
   1       0.2671056000      1.0000000000
 P 1 
   1       0.1483920000      1.0000000000
 P 1 
   1       0.0824400000      1.0000000000
 P 1 
   1       0.0458000000      1.0000000000
 D 1 
   1      52.9828772693      1.0000000000
 D 1 
   1      29.4349318163      1.0000000000
 D 1 
   1      16.3527398979      1.0000000000
 D 1 
   1       9.0848554989      1.0000000000
 D 1 
   1       5.0471419438      1.0000000000
 D 1 
   1       2.8039677466      1.0000000000
 D 1 
   1       1.5577598592      1.0000000000
 D 1 
   1       0.8654221440      1.0000000000
 D 1 
   1       0.4807900800      1.0000000000
 D 1 
   1       0.2671056000      1.0000000000
 D 1 
   1       0.1483920000      1.0000000000
 D 1 
   1       0.0824400000      1.0000000000
 D 1 
   1       0.0458000000      1.0000000000
 F 1 
   1       1.1112572240      1.0000000000
 F 1 
   1       0.5051169200      1.0000000000
 F 1 
   1       0.2295986000      1.0000000000
 F 1 
   1       0.1043630000      1.0000000000
  end;

 # Auxiliary/C basis set for element : S 
 NewAuxCGTO S 
 S 1 
   1    4900.5494839448      1.0000000000
 S 1 
   1    2722.5274910805      1.0000000000
 S 1 
   1    1512.5152728225      1.0000000000
 S 1 
   1     840.2862626792      1.0000000000
 S 1 
   1     466.8257014884      1.0000000000
 S 1 
   1     259.3476119380      1.0000000000
 S 1 
   1     144.0820066322      1.0000000000
 S 1 
   1      80.0455592401      1.0000000000
 S 1 
   1      44.4697551334      1.0000000000
 S 1 
   1      24.7054195186      1.0000000000
 S 1 
   1      13.7252330659      1.0000000000
 S 1 
   1       7.6251294810      1.0000000000
 S 1 
   1       4.2361830450      1.0000000000
 S 1 
   1       2.3534350250      1.0000000000
 S 1 
   1       1.3074639028      1.0000000000
 S 1 
   1       0.7263688349      1.0000000000
 S 1 
   1       0.4035382416      1.0000000000
 S 1 
   1       0.2241879120      1.0000000000
 S 1 
   1       0.1245488400      1.0000000000
 S 1 
   1       0.0691938000      1.0000000000
 P 1 
   1     840.2862626792      1.0000000000
 P 1 
   1     466.8257014884      1.0000000000
 P 1 
   1     259.3476119380      1.0000000000
 P 1 
   1     144.0820066322      1.0000000000
 P 1 
   1      80.0455592401      1.0000000000
 P 1 
   1      44.4697551334      1.0000000000
 P 1 
   1      24.7054195186      1.0000000000
 P 1 
   1      13.7252330659      1.0000000000
 P 1 
   1       7.6251294810      1.0000000000
 P 1 
   1       4.2361830450      1.0000000000
 P 1 
   1       2.3534350250      1.0000000000
 P 1 
   1       1.3074639028      1.0000000000
 P 1 
   1       0.7263688349      1.0000000000
 P 1 
   1       0.4035382416      1.0000000000
 P 1 
   1       0.2241879120      1.0000000000
 P 1 
   1       0.1245488400      1.0000000000
 P 1 
   1       0.0691938000      1.0000000000
 D 1 
   1     466.8257014884      1.0000000000
 D 1 
   1     259.3476119380      1.0000000000
 D 1 
   1     144.0820066322      1.0000000000
 D 1 
   1      80.0455592401      1.0000000000
 D 1 
   1      44.4697551334      1.0000000000
 D 1 
   1      24.7054195186      1.0000000000
 D 1 
   1      13.7252330659      1.0000000000
 D 1 
   1       7.6251294810      1.0000000000
 D 1 
   1       4.2361830450      1.0000000000
 D 1 
   1       2.3534350250      1.0000000000
 D 1 
   1       1.3074639028      1.0000000000
 D 1 
   1       0.7263688349      1.0000000000
 D 1 
   1       0.4035382416      1.0000000000
 D 1 
   1       0.2241879120      1.0000000000
 D 1 
   1       0.1245488400      1.0000000000
 D 1 
   1       0.0691938000      1.0000000000
 F 1 
   1      12.9797314099      1.0000000000
 F 1 
   1       5.8998779136      1.0000000000
 F 1 
   1       2.6817626880      1.0000000000
 F 1 
   1       1.2189830400      1.0000000000
 F 1 
   1       0.5540832000      1.0000000000
 F 1 
   1       0.2518560000      1.0000000000
 F 1 
   1       0.1144800000      1.0000000000
  end;

 # Auxiliary/C basis set for element : Cu
 NewAuxCGTO Cu
 S 1 
   1   12815.8936556437      1.0000000000
 S 1 
   1    7119.9409198021      1.0000000000
 S 1 
   1    3955.5227332234      1.0000000000
 S 1 
   1    2197.5126295685      1.0000000000
 S 1 
   1    1220.8403497603      1.0000000000
 S 1 
   1     678.2446387557      1.0000000000
 S 1 
   1     376.8025770865      1.0000000000
 S 1 
   1     209.3347650481      1.0000000000
 S 1 
   1     116.2970916934      1.0000000000
 S 1 
   1      64.6094953852      1.0000000000
 S 1 
   1      35.8941641029      1.0000000000
 S 1 
   1      19.9412022794      1.0000000000
 S 1 
   1      11.0784457108      1.0000000000
 S 1 
   1       6.1546920615      1.0000000000
 S 1 
   1       3.4192733675      1.0000000000
 S 1 
   1       1.8995963153      1.0000000000
 S 1 
   1       1.0553312863      1.0000000000
 S 1 
   1       0.5862951590      1.0000000000
 S 1 
   1       0.3257195328      1.0000000000
 S 1 
   1       0.1809552960      1.0000000000
 S 1 
   1       0.1005307200      1.0000000000
 S 1 
   1       0.0558504000      1.0000000000
 S 1 
   1       0.0310280000      1.0000000000
 P 1 
   1    3281.6792962385      1.0000000000
 P 1 
   1    1823.1551645769      1.0000000000
 P 1 
   1    1012.8639803205      1.0000000000
 P 1 
   1     562.7022112892      1.0000000000
 P 1 
   1     312.6123396051      1.0000000000
 P 1 
   1     173.6735220028      1.0000000000
 P 1 
   1      96.4852900016      1.0000000000
 P 1 
   1      53.6029388898      1.0000000000
 P 1 
   1      29.7794104943      1.0000000000
 P 1 
   1      16.5441169413      1.0000000000
 P 1 
   1       9.1911760785      1.0000000000
 P 1 
   1       5.1062089325      1.0000000000
 P 1 
   1       2.8367827403      1.0000000000
 P 1 
   1       1.5759904113      1.0000000000
 P 1 
   1       0.8755502285      1.0000000000
 P 1 
   1       0.4864167936      1.0000000000
 P 1 
   1       0.2702315520      1.0000000000
 P 1 
   1       0.1501286400      1.0000000000
 P 1 
   1       0.0834048000      1.0000000000
 P 1 
   1       0.0463360000      1.0000000000
 D 1 
   1    1347.4833218853      1.0000000000
 D 1 
   1     748.6018454918      1.0000000000
 D 1 
   1     415.8899141621      1.0000000000
 D 1 
   1     231.0499523123      1.0000000000
 D 1 
   1     128.3610846179      1.0000000000
 D 1 
   1      71.3117136766      1.0000000000
 D 1 
   1      39.6176187092      1.0000000000
 D 1 
   1      22.0097881718      1.0000000000
 D 1 
   1      12.2276600954      1.0000000000
 D 1 
   1       6.7931444975      1.0000000000
 D 1 
   1       3.7739691653      1.0000000000
 D 1 
   1       2.0966495363      1.0000000000
 D 1 
   1       1.1648052979      1.0000000000
 D 1 
   1       0.6471140544      1.0000000000
 D 1 
   1       0.3595078080      1.0000000000
 D 1 
   1       0.1997265600      1.0000000000
 D 1 
   1       0.1109592000      1.0000000000
 D 1 
   1       0.0616440000      1.0000000000
 F 1 
   1    1089.9683674044      1.0000000000
 F 1 
   1     605.5379818913      1.0000000000
 F 1 
   1     336.4099899396      1.0000000000
 F 1 
   1     186.8944388553      1.0000000000
 F 1 
   1     103.8302438085      1.0000000000
 F 1 
   1      57.6834687825      1.0000000000
 F 1 
   1      32.0463715458      1.0000000000
 F 1 
   1      17.8035397477      1.0000000000
 F 1 
   1       9.8908554154      1.0000000000
 F 1 
   1       5.4949196752      1.0000000000
 F 1 
   1       3.0527331529      1.0000000000
 F 1 
   1       1.6959628627      1.0000000000
 F 1 
   1       0.9422015904      1.0000000000
 F 1 
   1       0.5234453280      1.0000000000
 F 1 
   1       0.2908029600      1.0000000000
 F 1 
   1       0.1615572000      1.0000000000
 F 1 
   1       0.0897540000      1.0000000000
 G 1 
   1     136.3487739404      1.0000000000
 G 1 
   1      75.7493188558      1.0000000000
 G 1 
   1      42.0829549199      1.0000000000
 G 1 
   1      23.3794193999      1.0000000000
 G 1 
   1      12.9885663333      1.0000000000
 G 1 
   1       7.2158701852      1.0000000000
 G 1 
   1       4.0088167695      1.0000000000
 G 1 
   1       2.2271204275      1.0000000000
 G 1 
   1       1.2372891264      1.0000000000
 G 1 
   1       0.6873828480      1.0000000000
 G 1 
   1       0.3818793600      1.0000000000
 G 1 
   1       0.2121552000      1.0000000000
 G 1 
   1       0.1178640000      1.0000000000
 H 1 
   1       5.8747580812      1.0000000000
 H 1 
   1       2.5542426440      1.0000000000
 H 1 
   1       1.1105402800      1.0000000000
 H 1 
   1       0.4828436000      1.0000000000
 H 1 
   1       0.2099320000      1.0000000000
  end;

----------------------------------
AUXILIARY/JK BASIS SET INFORMATION
----------------------------------
There are 4 groups of distinct atoms

 Group   1 Type Cu  : 23s20p18d17f13g5h contracted to 23s20p18d17f13g5h pattern {11111111111111111111111/11111111111111111111/111111111111111111/11111111111111111/1111111111111/11111}
 Group   2 Type S   : 20s17p16d7f contracted to 20s17p16d7f pattern {11111111111111111111/11111111111111111/1111111111111111/1111111}
 Group   3 Type C   : 17s14p13d4f contracted to 17s14p13d4f pattern {11111111111111111/11111111111111/1111111111111/1111}
 Group   4 Type H   : 12s5p4d3f contracted to 12s5p4d3f pattern {111111111111/11111/1111/111}

Atom   0Cu   basis set group =>   1
Atom   1S    basis set group =>   2
Atom   2C    basis set group =>   3
Atom   3S    basis set group =>   2
Atom   4C    basis set group =>   3
Atom   5S    basis set group =>   2
Atom   6C    basis set group =>   3
Atom   7S    basis set group =>   2
Atom   8C    basis set group =>   3
Atom   9C    basis set group =>   3
Atom  10C    basis set group =>   3
Atom  11C    basis set group =>   3
Atom  12H    basis set group =>   4
Atom  13C    basis set group =>   3
Atom  14H    basis set group =>   4
Atom  15H    basis set group =>   4
Atom  16H    basis set group =>   4
Atom  17C    basis set group =>   3
Atom  18C    basis set group =>   3
Atom  19C    basis set group =>   3
Atom  20H    basis set group =>   4
Atom  21C    basis set group =>   3
Atom  22H    basis set group =>   4
Atom  23H    basis set group =>   4
Atom  24H    basis set group =>   4

--------------------------------------
AUXILIARY/JK BASIS SET IN INPUT FORMAT
--------------------------------------

 # Auxiliary/JK basis set for element : H 
 NewAuxJKGTO H 
 S 1 
   1      35.9414656527      1.0000000000
 S 1 
   1      19.9674809182      1.0000000000
 S 1 
   1      11.0930449545      1.0000000000
 S 1 
   1       6.1628027525      1.0000000000
 S 1 
   1       3.4237793070      1.0000000000
 S 1 
   1       1.9020996150      1.0000000000
 S 1 
   1       1.0567220083      1.0000000000
 S 1 
   1       0.5870677824      1.0000000000
 S 1 
   1       0.3261487680      1.0000000000
 S 1 
   1       0.1811937600      1.0000000000
 S 1 
   1       0.1006632000      1.0000000000
 S 1 
   1       0.0559240000      1.0000000000
 P 1 
   1       2.0286240000      1.0000000000
 P 1 
   1       1.0143120000      1.0000000000
 P 1 
   1       0.5071560000      1.0000000000
 P 1 
   1       0.2535780000      1.0000000000
 P 1 
   1       0.1267890000      1.0000000000
 D 1 
   1       2.1046197920      1.0000000000
 D 1 
   1       0.9566453600      1.0000000000
 D 1 
   1       0.4348388000      1.0000000000
 D 1 
   1       0.1976540000      1.0000000000
 F 1 
   1       1.8869562800      1.0000000000
 F 1 
   1       0.8577074000      1.0000000000
 F 1 
   1       0.3898670000      1.0000000000
  end;

 # Auxiliary/JK basis set for element : C 
 NewAuxJKGTO C 
 S 1 
   1     556.1930524224      1.0000000000
 S 1 
   1     308.9961402347      1.0000000000
 S 1 
   1     171.6645223526      1.0000000000
 S 1 
   1      95.3691790848      1.0000000000
 S 1 
   1      52.9828772693      1.0000000000
 S 1 
   1      29.4349318163      1.0000000000
 S 1 
   1      16.3527398979      1.0000000000
 S 1 
   1       9.0848554989      1.0000000000
 S 1 
   1       5.0471419438      1.0000000000
 S 1 
   1       2.8039677466      1.0000000000
 S 1 
   1       1.5577598592      1.0000000000
 S 1 
   1       0.8654221440      1.0000000000
 S 1 
   1       0.4807900800      1.0000000000
 S 1 
   1       0.2671056000      1.0000000000
 S 1 
   1       0.1483920000      1.0000000000
 S 1 
   1       0.0824400000      1.0000000000
 S 1 
   1       0.0458000000      1.0000000000
 P 1 
[...]
  X      -0.6362160    0.0000000    0.7715110
  Y       0.7715110   -0.0000000    0.6362160
  Z       0.0000000    1.0000000    0.0000000

Note: Tensor is right-handed


 Quadrupole tensor eigenvalues (in MHz;Q= 0.0029 I=  1.0)
  e**2qQ            =     0.179464 MHz 
  e**2qQ/(4I*(2I-1))=     0.044866 MHz 
  eta               =     0.087459
  NOTE: the diagonal representation of the SH term I*Q*I = e**2qQ/(4I(2I-1))*[-(1-eta),-(1+eta),2]

 RHO(0)=      0.455256903 a.u.**-3

 -----------------------------------------------------------
 Nucleus  16H : A:ISTP=    1 I=  0.5 P=533.5514 MHz/au**3
                Q:ISTP=    2 I=  1.0 Q=  0.0029 barn     
 -----------------------------------------------------------
 Solving for nuclear perturbation:
Forming RHS of the CP-SCF equations         ... 
Calc. nucleus orbit integrals (SHARK)       ... done

Forming final perturbed densities           ... done
Transforming perturbed density to AO basis  ... done

 Raw HFC matrix (all values in MHz): 
 -----------------------------------
                 1.5732              -0.1035               0.0002
                -0.0960               0.8543               0.0001
                 0.0001               0.0001               0.6415

 A(FC)           1.0247               1.0247               1.0247
 A(SD)          -0.3746              -0.1797               0.5543
 A(ORB+DIA)     -0.0086              -0.0042               0.0077    A(PC) =  -0.0017
 A(ORB)         -0.0086              -0.0041               0.0076    A(PC) =  -0.0017
 A(DIA)         -0.0001              -0.0001               0.0002    A(PC) =  -0.0000
             ----------           ----------           ----------
 A(Tot)          0.6415               0.8408               1.5867    A(iso)=    1.0230
 Orientation: 
  X          -0.0003538            0.1396934           -0.9901947
  Y          -0.0008004            0.9901945            0.1396936
  Z           0.9999996            0.0008420           -0.0002385

Notes:  (1) The A matrix conforms to the "SAI" spin Hamiltonian convention.
        (2) Tensor is right-handed.

 Raw EFG matrix (all values in a.u.**-3):
 -----------------------------------
             0.2194      -0.1346      -0.0000
            -0.1346      -0.0696       0.0000
            -0.0000       0.0000      -0.1498

 V(El)       0.5760       0.8172      -1.3932
 V(Nuc)     -0.6986      -0.9669       1.6656
         ----------   ----------   ----------
 V(Tot)     -0.1226      -0.1498       0.2724 
 Orientation: 
  X       0.3663275   -0.0000000    0.9304860
  Y       0.9304860   -0.0000000   -0.3663275
  Z       0.0000000    1.0000000   -0.0000000

Note: Tensor is right-handed


 Quadrupole tensor eigenvalues (in MHz;Q= 0.0029 I=  1.0)
  e**2qQ            =     0.182906 MHz 
  e**2qQ/(4I*(2I-1))=     0.045727 MHz 
  eta               =     0.099858
  NOTE: the diagonal representation of the SH term I*Q*I = e**2qQ/(4I(2I-1))*[-(1-eta),-(1+eta),2]

 RHO(0)=      0.457603038 a.u.**-3

 -----------------------------------------------------------
 Nucleus  20H : A:ISTP=    1 I=  0.5 P=533.5514 MHz/au**3
                Q:ISTP=    2 I=  1.0 Q=  0.0029 barn     
 -----------------------------------------------------------
 Solving for nuclear perturbation:
Forming RHS of the CP-SCF equations         ... 
Calc. nucleus orbit integrals (SHARK)       ... done

Forming final perturbed densities           ... done
Transforming perturbed density to AO basis  ... done

 Raw HFC matrix (all values in MHz): 
 -----------------------------------
                 4.8148              -0.9299               0.0010
                -0.9257               2.9355               0.0001
                 0.0000              -0.0002               2.1950

 A(FC)           3.3212               3.3212               3.3212
 A(SD)          -1.1094              -0.7566               1.8659
 A(ORB+DIA)     -0.0169              -0.0100               0.0085    A(PC) =  -0.0061
 A(ORB)         -0.0166              -0.0096               0.0081    A(PC) =  -0.0060
 A(DIA)         -0.0003              -0.0004               0.0003    A(PC) =  -0.0001
             ----------           ----------           ----------
 A(Tot)          2.1950               2.5547               5.1956    A(iso)=    3.3151
 Orientation: 
  X          -0.0007282           -0.3802691            0.9248756
  Y          -0.0009937           -0.9248751           -0.3802696
  Z           0.9999992           -0.0011960            0.0002956

Notes:  (1) The A matrix conforms to the "SAI" spin Hamiltonian convention.
        (2) Tensor is right-handed.

 Raw EFG matrix (all values in a.u.**-3):
 -----------------------------------
            -0.1345      -0.0465       0.0000
            -0.0465       0.2986      -0.0000
             0.0000      -0.0000      -0.1641

 V(El)       0.3759       0.9749      -1.3508
 V(Nuc)     -0.5153      -1.1390       1.6544
         ----------   ----------   ----------
 V(Tot)     -0.1394      -0.1641       0.3035 
 Orientation: 
  X       0.9944243   -0.0000000    0.1054529
  Y       0.1054529    0.0000000   -0.9944243
  Z       0.0000000    1.0000000    0.0000000

Note: Tensor is right-handed


 Quadrupole tensor eigenvalues (in MHz;Q= 0.0029 I=  1.0)
  e**2qQ            =     0.203828 MHz 
  e**2qQ/(4I*(2I-1))=     0.050957 MHz 
  eta               =     0.081272
  NOTE: the diagonal representation of the SH term I*Q*I = e**2qQ/(4I(2I-1))*[-(1-eta),-(1+eta),2]

 RHO(0)=      0.475818117 a.u.**-3

 -----------------------------------------------------------
 Nucleus  22H : A:ISTP=    1 I=  0.5 P=533.5514 MHz/au**3
                Q:ISTP=    2 I=  1.0 Q=  0.0029 barn     
 -----------------------------------------------------------
 Solving for nuclear perturbation:
Forming RHS of the CP-SCF equations         ... 
Calc. nucleus orbit integrals (SHARK)       ... done

Forming final perturbed densities           ... done
Transforming perturbed density to AO basis  ... done

 Raw HFC matrix (all values in MHz): 
 -----------------------------------
                 1.6498               0.9151               0.0009
                 0.9074              -0.7062              -0.0000
                 0.0004               0.0001              -1.9610

 A(FC)          -0.3289              -0.3289              -0.3289
 A(SD)          -0.6855              -1.6082               2.2937
 A(ORB+DIA)     -0.0031              -0.0239              -0.0037    A(PC) =  -0.0103
 A(ORB)         -0.0027              -0.0235              -0.0041    A(PC) =  -0.0101
 A(DIA)         -0.0005              -0.0004               0.0004    A(PC) =  -0.0002
             ----------           ----------           ----------
 A(Tot)         -1.0176              -1.9610               1.9611    A(iso)=   -0.3391
 Orientation: 
  X           0.3242556           -0.0000756           -0.9459695
  Y          -0.9459694            0.0003274           -0.3242556
  Z           0.0003342            0.9999999            0.0000347

Notes:  (1) The A matrix conforms to the "SAI" spin Hamiltonian convention.
        (2) Tensor is right-handed.

 Raw EFG matrix (all values in a.u.**-3):
 -----------------------------------
            -0.1246      -0.0377      -0.0000
            -0.0377       0.2741      -0.0000
            -0.0000      -0.0000      -0.1495

 V(El)       0.2296       0.9316      -1.1612
 V(Nuc)     -0.3577      -1.0811       1.4388
         ----------   ----------   ----------
 V(Tot)     -0.1281      -0.1495       0.2776 
 Orientation: 
  X      -0.9956264    0.0000000   -0.0934244
  Y      -0.0934244    0.0000000    0.9956264
  Z       0.0000000    1.0000000   -0.0000000

Note: Tensor is right-handed


 Quadrupole tensor eigenvalues (in MHz;Q= 0.0029 I=  1.0)
  e**2qQ            =     0.186407 MHz 
  e**2qQ/(4I*(2I-1))=     0.046602 MHz 
  eta               =     0.076990
  NOTE: the diagonal representation of the SH term I*Q*I = e**2qQ/(4I(2I-1))*[-(1-eta),-(1+eta),2]

 RHO(0)=      0.457710735 a.u.**-3

 -----------------------------------------------------------
 Nucleus  23H : A:ISTP=    1 I=  0.5 P=533.5514 MHz/au**3
                Q:ISTP=    2 I=  1.0 Q=  0.0029 barn     
 -----------------------------------------------------------
 Solving for nuclear perturbation:
Forming RHS of the CP-SCF equations         ... 
Calc. nucleus orbit integrals (SHARK)       ... done

Forming final perturbed densities           ... done
Transforming perturbed density to AO basis  ... done

 Raw HFC matrix (all values in MHz): 
 -----------------------------------
                 1.6160              -0.1023               0.0003
                -0.0964               0.9397               0.0001
                 0.0001               0.0000               0.7278

 A(FC)           1.0966               1.0966               1.0966
 A(SD)          -0.3599              -0.1673               0.5272
 A(ORB+DIA)     -0.0088              -0.0039               0.0064    A(PC) =  -0.0021
 A(ORB)         -0.0088              -0.0038               0.0062    A(PC) =  -0.0021
 A(DIA)         -0.0001              -0.0001               0.0002    A(PC) =  -0.0000
             ----------           ----------           ----------
 A(Tot)          0.7278               0.9254               1.6303    A(iso)=    1.0945
 Orientation: 
  X          -0.0003484            0.1463649           -0.9892306
  Y          -0.0005181            0.9892305            0.1463650
  Z           0.9999998            0.0005635           -0.0002688

Notes:  (1) The A matrix conforms to the "SAI" spin Hamiltonian convention.
        (2) Tensor is right-handed.

 Raw EFG matrix (all values in a.u.**-3):
 -----------------------------------
             0.1911      -0.0856       0.0000
            -0.0856      -0.0713       0.0000
             0.0000       0.0000      -0.1197

 V(El)       0.5179       0.7904      -1.3083
 V(Nuc)     -0.6146      -0.9101       1.5248
         ----------   ----------   ----------
 V(Tot)     -0.0968      -0.1197       0.2165 
 Orientation: 
  X       0.2849761   -0.0000000    0.9585346
  Y       0.9585346   -0.0000000   -0.2849761
  Z       0.0000000    1.0000000   -0.0000000

Note: Tensor is right-handed


 Quadrupole tensor eigenvalues (in MHz;Q= 0.0029 I=  1.0)
  e**2qQ            =     0.145377 MHz 
  e**2qQ/(4I*(2I-1))=     0.036344 MHz 
  eta               =     0.105870
  NOTE: the diagonal representation of the SH term I*Q*I = e**2qQ/(4I(2I-1))*[-(1-eta),-(1+eta),2]

 RHO(0)=      0.431515539 a.u.**-3

 -----------------------------------------------------------
 Nucleus  24H : A:ISTP=    1 I=  0.5 P=533.5514 MHz/au**3
                Q:ISTP=    2 I=  1.0 Q=  0.0029 barn     
 -----------------------------------------------------------
 Solving for nuclear perturbation:
Forming RHS of the CP-SCF equations         ... 
Calc. nucleus orbit integrals (SHARK)       ... done

Forming final perturbed densities           ... done
Transforming perturbed density to AO basis  ... done

 Raw HFC matrix (all values in MHz): 
 -----------------------------------
                 1.9377               0.1630               0.0002
                 0.1611               1.0169               0.0001
                 0.0001               0.0003               0.7853

 A(FC)           1.2451               1.2451               1.2451
 A(SD)          -0.4492              -0.2602               0.7093
 A(ORB+DIA)     -0.0106               0.0043               0.0109    A(PC) =   0.0015
 A(ORB)         -0.0106               0.0044               0.0108    A(PC) =   0.0015
 A(DIA)         -0.0001              -0.0002               0.0002    A(PC) =  -0.0000
             ----------           ----------           ----------
 A(Tot)          0.7853               0.9892               1.9654    A(iso)=    1.2466
 Orientation: 
  X          -0.0001918           -0.1693490           -0.9855561
  Y          -0.0000930            0.9855561           -0.1693490
  Z           1.0000000            0.0000591           -0.0002048

Notes:  (1) The A matrix conforms to the "SAI" spin Hamiltonian convention.
        (2) Tensor is right-handed.

 Raw EFG matrix (all values in a.u.**-3):
 -----------------------------------
             0.0569       0.1509       0.0000
             0.1509       0.0556      -0.0000
             0.0000      -0.0000      -0.1125

 V(El)       0.4528       0.7778      -1.2307
 V(Nuc)     -0.5475      -0.8903       1.4378
         ----------   ----------   ----------
 V(Tot)     -0.0946      -0.1125       0.2071 
 Orientation: 
  X      -0.7054860   -0.0000000    0.7087238
  Y       0.7087238    0.0000000    0.7054860
  Z      -0.0000000    1.0000000   -0.0000000

Note: Tensor is right-handed


 Quadrupole tensor eigenvalues (in MHz;Q= 0.0029 I=  1.0)
  e**2qQ            =     0.139087 MHz 
  e**2qQ/(4I*(2I-1))=     0.034772 MHz 
  eta               =     0.086211
  NOTE: the diagonal representation of the SH term I*Q*I = e**2qQ/(4I(2I-1))*[-(1-eta),-(1+eta),2]

 RHO(0)=      0.426799033 a.u.**-3

 -----------------------------------------------------------
 Nucleus   0Cu: A:ISTP=   63 I=  1.5 P=141.6005 MHz/au**3
                Q:ISTP=   63 I=  1.5 Q= -0.2200 barn     
 -----------------------------------------------------------
 Solving for nuclear perturbation:
Forming RHS of the CP-SCF equations         ... 
Calc. nucleus orbit integrals (SHARK)       ... done

Forming final perturbed densities           ... done
Transforming perturbed density to AO basis  ... done

 Raw HFC matrix (all values in MHz): 
 -----------------------------------
               187.8884              -3.3842              -0.3025
                -5.6833             189.9054               0.1117
                 0.4883              -0.1049            -231.0473

 A(FC)           0.9112               0.9112               0.9112
 A(SD)         159.2484             165.8192            -325.0676
 A(ORB+DIA)     24.1043              26.7992              93.1095    A(PC) =  48.0043
 A(ORB)         24.1044              26.7995              93.1108    A(PC) =  48.0049
 A(DIA)         -0.0001              -0.0003              -0.0014    A(PC) =  -0.0006
             ----------           ----------           ----------
 A(Tot)        184.2638             193.5296            -231.0469    A(iso)=   48.9155
 Orientation: 
  X           0.8017638           -0.5976406            0.0007175
  Y           0.5976409            0.8017639           -0.0002193
  Z          -0.0004442            0.0006046            0.9999997

Notes:  (1) The A matrix conforms to the "SAI" spin Hamiltonian convention.
        (2) Tensor is right-handed.

 Raw EFG matrix (all values in a.u.**-3):
 -----------------------------------
             0.7242       0.0765      -0.0000
             0.0765       1.1766      -0.0000
            -0.0000      -0.0000      -1.9007

 V(El)      -0.0010       0.9714      -0.9703
 V(Nuc)      0.7126       0.2178      -0.9304
         ----------   ----------   ----------
 V(Tot)      0.7116       1.1892      -1.9007 
 Orientation: 
  X      -0.9867176    0.1624452   -0.0000000
  Y       0.1624452    0.9867176   -0.0000000
  Z       0.0000000   -0.0000000   -1.0000000

Note: Tensor is right-handed


 Quadrupole tensor eigenvalues (in MHz;Q=-0.2200 I=  1.5)
  e**2qQ            =    98.253791 MHz 
  e**2qQ/(4I*(2I-1))=     8.187816 MHz 
  eta               =     0.251255
  NOTE: the diagonal representation of the SH term I*Q*I = e**2qQ/(4I(2I-1))*[-(1-eta),-(1+eta),2]

 RHO(0)=  37601.824755124 a.u.**-3


--------------------------------------------------------------------------------
----------------------------------------------------------------------------
                           ORCA EULER ANGLE PROGRAM
----------------------------------------------------------------------------

Only g-tensor available        -->  using g-tensor as reference tensor

Reference tensor               ...  g

g-tensor ordering              ...  |g_min> --> |gx>
                                    |g_mid> --> |gy>
                                    |g_max> --> |gz>

A- and EFG-tensor ordering     ...  the axes |Ax>, |Qx>, |Ay>, etc. are assigned
                                    such that the Euler rotation is minimal. You
                                    can find the respective eigenvalues as Ax,
                                    EFGx, Ay, etc. in the tables below.
                                    The relation of |Ax>, |Ay>,  etc. to Amin, Amid, etc.
                                    (as printed in the ORCA EPR/NMR CALCULATION Output)
                                    is obtained in the detailed printout.

Euler rotation around          ...  z - y - z
   First rotation              -->  by alpha around z
   Second rotation             -->  by beta around y'
   Third rotation              -->  by gamma around z''
   Positive / Negative angle   -->  clockwise / counterclockwise rotation

Plot EFG-tensors                    (-)
Plot HFC-tensors                    (-)
Detailed Printout                   (-)

-------------------------------------------------------------------------
          Euler rotation of hyperfine tensor to g-tensor
-------------------------------------------------------------------------

-------------------------------------------------------------------
 Atom  |   Alpha    Beta    Gamma   |   Ax       Ay       Az 
       |          [degrees]         |           [MHz]         
-------------------------------------------------------------------
 12H     -148.6      0.1    129.1      -0.55     2.39    -1.35
 14H      -97.8      0.2    126.8       4.53     1.83     1.41
 15H     -166.1      0.2    135.2       0.80     1.74     0.61
 16H      -88.5      0.2    132.0       1.59     0.84     0.64
 20H      -97.5      0.2    126.7       5.20     2.55     2.20
 22H     -153.9      0.1    134.3      -1.02     1.96    -1.96
 23H      -88.1      0.2    131.3       1.63     0.93     0.73
 24H     -161.7      0.1    133.0       0.99     1.97     0.79
  0Cu    -154.2      0.1    152.4     193.53   184.26  -231.05
-------------------------------------------------------------------


-------------------------------------------------------------------------------
    Euler rotation of Electric Field Gradient (EFG) tensor to g-tensor
-------------------------------------------------------------------------------

-------------------------------------------------------------------
 Atom  |   Alpha    Beta    Gamma  |   EFGx     EFGy     EFGz
       |          [degrees]        |         [a.u.**-3]       
-------------------------------------------------------------------
 12H     -173.1      0.1    137.0      0.30    -0.14    -0.16
 14H     -171.8      0.1    137.0      0.31    -0.14    -0.17
 15H     -135.9      0.1    137.0     -0.12     0.27    -0.15
 16H     -106.9      0.1    137.0      0.27    -0.12    -0.15
 20H     -169.4      0.1    137.0      0.30    -0.14    -0.16
 22H     -170.1      0.1    137.0      0.28    -0.13    -0.15
 23H     -102.0      0.1    137.0      0.22    -0.10    -0.12
 24H     -130.6      0.1    137.0     -0.09     0.21    -0.11
  0Cu     -94.8      0.1    137.0      0.71     1.19    -1.90
-------------------------------------------------------------------


Maximum memory used throughout the entire EPRNMR-calculation: 587.3 MB

Timings for individual modules:

Sum of individual times         ...    22449.177 sec (= 374.153 min)
GTO integral calculation        ...       16.210 sec (=   0.270 min)   0.1 %
Spin-Orbit-Coupling Matrices    ...      236.906 sec (=   3.948 min)   1.1 %
SCF iterations                  ...      592.985 sec (=   9.883 min)   2.6 %
EPR/NMR calculation             ...    21603.076 sec (= 360.051 min)  96.2 %
                             ****ORCA TERMINATED NORMALLY****
TOTAL RUN TIME: 0 days 6 hours 15 minutes 43 seconds 370 msec
