
                                 *****************
                                 * O   R   C   A *
                                 *****************

                                            #,                                       
                                            ###                                      
                                            ####                                     
                                            #####                                    
                                            ######                                   
                                           ########,                                 
                                     ,,################,,,,,                         
                               ,,#################################,,                 
                          ,,##########################################,,             
                       ,#########################################, ''#####,          
                    ,#############################################,,   '####,        
                  ,##################################################,,,,####,       
                ,###########''''           ''''###############################       
              ,#####''   ,,,,##########,,,,          '''####'''          '####       
            ,##' ,,,,###########################,,,                        '##       
           ' ,,###''''                  '''############,,,                           
         ,,##''                                '''############,,,,        ,,,,,,###''
      ,#''                                            '''#######################'''  
     '                                                          ''''####''''         
             ,#######,   #######,   ,#######,      ##                                
            ,#'     '#,  ##    ##  ,#'     '#,    #''#        ######   ,####,        
            ##       ##  ##   ,#'  ##            #'  '#       #        #'  '#        
            ##       ##  #######   ##           ,######,      #####,   #    #        
            '#,     ,#'  ##    ##  '#,     ,#' ,#      #,         ##   #,  ,#        
             '#######'   ##     ##  '#######'  #'      '#     #####' # '####'        



                  #######################################################
                  #                        -***-                        #
                  #          Department of theory and spectroscopy      #
                  #    Directorship and core code : Frank Neese         #
                  #        Max Planck Institute fuer Kohlenforschung    #
                  #                Kaiser Wilhelm Platz 1               #
                  #                 D-45470 Muelheim/Ruhr               #
                  #                      Germany                        #
                  #                                                     #
                  #                  All rights reserved                #
                  #                        -***-                        #
                  #######################################################


                         Program Version 5.0.4 -  RELEASE  -


 With contributions from (in alphabetic order):
   Daniel Aravena         : Magnetic Suceptibility
   Michael Atanasov       : Ab Initio Ligand Field Theory (pilot matlab implementation)
   Alexander A. Auer      : GIAO ZORA, VPT2 properties, NMR spectrum
   Ute Becker             : Parallelization
   Giovanni Bistoni       : ED, misc. LED, open-shell LED, HFLD
   Martin Brehm           : Molecular dynamics
   Dmytro Bykov           : SCF Hessian
   Vijay G. Chilkuri      : MRCI spin determinant printing, contributions to CSF-ICE
   Dipayan Datta          : RHF DLPNO-CCSD density
   Achintya Kumar Dutta   : EOM-CC, STEOM-CC
   Dmitry Ganyushin       : Spin-Orbit,Spin-Spin,Magnetic field MRCI
   Miquel Garcia          : C-PCM and meta-GGA Hessian, CC/C-PCM, Gaussian charge scheme
   Yang Guo               : DLPNO-NEVPT2, F12-NEVPT2, CIM, IAO-localization
   Andreas Hansen         : Spin unrestricted coupled pair/coupled cluster methods
   Benjamin Helmich-Paris : MC-RPA, TRAH-SCF, COSX integrals
   Lee Huntington         : MR-EOM, pCC
   Robert Izsak           : Overlap fitted RIJCOSX, COSX-SCS-MP3, EOM
   Marcus Kettner         : VPT2
   Christian Kollmar      : KDIIS, OOCD, Brueckner-CCSD(T), CCSD density, CASPT2, CASPT2-K
   Simone Kossmann        : Meta GGA functionals, TD-DFT gradient, OOMP2, MP2 Hessian
   Martin Krupicka        : Initial AUTO-CI
   Lucas Lang             : DCDCAS
   Marvin Lechner         : AUTO-CI (C++ implementation), FIC-MRCC
   Dagmar Lenk            : GEPOL surface, SMD
   Dimitrios Liakos       : Extrapolation schemes; Compound Job, initial MDCI parallelization
   Dimitrios Manganas     : Further ROCIS development; embedding schemes
   Dimitrios Pantazis     : SARC Basis sets
   Anastasios Papadopoulos: AUTO-CI, single reference methods and gradients
   Taras Petrenko         : DFT Hessian,TD-DFT gradient, ASA, ECA, R-Raman, ABS, FL, XAS/XES, NRVS
   Peter Pinski           : DLPNO-MP2, DLPNO-MP2 Gradient
   Christoph Reimann      : Effective Core Potentials
   Marius Retegan         : Local ZFS, SOC
   Christoph Riplinger    : Optimizer, TS searches, QM/MM, DLPNO-CCSD(T), (RO)-DLPNO pert. Triples
   Tobias Risthaus        : Range-separated hybrids, TD-DFT gradient, RPA, STAB
   Michael Roemelt        : Original ROCIS implementation
   Masaaki Saitow         : Open-shell DLPNO-CCSD energy and density
   Barbara Sandhoefer     : DKH picture change effects
   Avijit Sen             : IP-ROCIS
   Kantharuban Sivalingam : CASSCF convergence, NEVPT2, FIC-MRCI
   Bernardo de Souza      : ESD, SOC TD-DFT
   Georgi Stoychev        : AutoAux, RI-MP2 NMR, DLPNO-MP2 response
   Willem Van den Heuvel  : Paramagnetic NMR
   Boris Wezisla          : Elementary symmetry handling
   Frank Wennmohs         : Technical directorship


 We gratefully acknowledge several colleagues who have allowed us to
 interface, adapt or use parts of their codes:
   Stefan Grimme, W. Hujo, H. Kruse, P. Pracht,  : VdW corrections, initial TS optimization,
                  C. Bannwarth, S. Ehlert          DFT functionals, gCP, sTDA/sTD-DF
   Ed Valeev, F. Pavosevic, A. Kumar             : LibInt (2-el integral package), F12 methods
   Garnet Chan, S. Sharma, J. Yang, R. Olivares  : DMRG
   Ulf Ekstrom                                   : XCFun DFT Library
   Mihaly Kallay                                 : mrcc  (arbitrary order and MRCC methods)
   Jiri Pittner, Ondrej Demel                    : Mk-CCSD
   Frank Weinhold                                : gennbo (NPA and NBO analysis)
   Christopher J. Cramer and Donald G. Truhlar   : smd solvation model
   Lars Goerigk                                  : TD-DFT with DH, B97 family of functionals
   V. Asgeirsson, H. Jonsson                     : NEB implementation
   FAccTs GmbH                                   : IRC, NEB, NEB-TS, DLPNO-Multilevel, CI-OPT
                                                   MM, QMMM, 2- and 3-layer-ONIOM, Crystal-QMMM,
                                                   LR-CPCM, SF, NACMEs, symmetry and pop. for TD-DFT,
                                                   nearIR, NL-DFT gradient (VV10), updates on ESD,
                                                   ML-optimized integration grids
   S Lehtola, MJT Oliveira, MAL Marques          : LibXC Library
   Liviu Ungur et al                             : ANISO software


 Your calculation uses the libint2 library for the computation of 2-el integrals
 For citations please refer to: http://libint.valeyev.net

 Your ORCA version has been built with support for libXC version: 5.1.0
 For citations please refer to: https://tddft.org/programs/libxc/

 This ORCA versions uses:
   CBLAS   interface :  Fast vector & matrix operations
   LAPACKE interface :  Fast linear algebra routines
   SCALAPACK package :  Parallel linear algebra routines
   Shared memory     :  Shared parallel matrices
   BLAS/LAPACK       :  OpenBLAS 0.3.15  USE64BITINT DYNAMIC_ARCH NO_AFFINITY Prescott SINGLE_THREADED
        Core in use  :  Prescott
   Copyright (c) 2011-2014, The OpenBLAS Project


XCFun DFT library Copyright 2009-2010 Ulf Ekstrom and contributors.
See http://admol.org/xcfun for more information.
This is free software; see the source code for copying conditions.
There is ABSOLUTELY NO WARRANTY; not even for MERCHANTABILITY or FITNESS FOR A PARTICULAR PURPOSE.
For details see the documentation.
Scientific users of this library should cite U. Ekstrom, L. Visscher, R. Bast, A. J. Thorvaldsen and K. Ruud;
J.Chem.Theor.Comp. 2010, DOI: 10.1021/ct100117s
XCFun Version 0.99 

================================================================================

----- Orbital basis set information -----
Your calculation utilizes the basis: ANO-RCC-DZP
   H, He:       P.-O. Widmark, P.-A. Malmqvist, and B. O. Roos, Theor. Chim. Acta 77, 291 (1990).
   s block:     B. O. Roos, V. Veryazov and P.-O. Widmark, Theor. Chem. Acc. 111, 345 (2004).
   p block:     B. O. Roos, R. Lindh, P.-A. Malmqvist, V. Veryazov, and P.-O. Widmark, J. Phys. Chem. A 108, 2851 (2004).
   d block:     B. O. Roos, R. Lindh, P.-A. Malmqvist, V. Veryazov, and P.-O. Widmark, J. Phys. Chem. A 109, 6575 (2005).
   actinides:   B. O. Roos, R. Lindh, P.-A. Malmqvist, V. Veryazov, and P.-O. Widmark, Chem. Phys. Letters 409, 295 (2005).
   lanthanides: B. O. Roos, R. Lindh, P.-A. Malmqvist, V. Veryazov, P.-O. Widmark and A. C. Borin, J. Phys. Chem. A 112, 11431 (2008).

The basis set includes element-specific modifications.

Your calculation utilizes the basis: ANO-RCC-TZP
   H, He:       P.-O. Widmark, P.-A. Malmqvist, and B. O. Roos, Theor. Chim. Acta 77, 291 (1990).
   s block:     B. O. Roos, V. Veryazov and P.-O. Widmark, Theor. Chem. Acc. 111, 345 (2004).
   p block:     B. O. Roos, R. Lindh, P.-A. Malmqvist, V. Veryazov, and P.-O. Widmark, J. Phys. Chem. A 108, 2851 (2004).
   d block:     B. O. Roos, R. Lindh, P.-A. Malmqvist, V. Veryazov, and P.-O. Widmark, J. Phys. Chem. A 109, 6575 (2005).
   actinides:   B. O. Roos, R. Lindh, P.-A. Malmqvist, V. Veryazov, and P.-O. Widmark, Chem. Phys. Letters 409, 295 (2005).
   lanthanides: B. O. Roos, R. Lindh, P.-A. Malmqvist, V. Veryazov, P.-O. Widmark and A. C. Borin, J. Phys. Chem. A 112, 11431 (2008).

----- AuxJ basis set information -----
Your calculation utilizes the AutoAux generation procedure.
  G. L. Stoychev, A. A. Auer, F. Neese, J. Chem. Theory Comput. 13, 554 (2017)

----- AuxC basis set information -----
Your calculation utilizes the AutoAux generation procedure.
  G. L. Stoychev, A. A. Auer, F. Neese, J. Chem. Theory Comput. 13, 554 (2017)

----- AuxJK basis set information -----
Your calculation utilizes the AutoAux generation procedure.
  G. L. Stoychev, A. A. Auer, F. Neese, J. Chem. Theory Comput. 13, 554 (2017)

================================================================================
                                        WARNINGS
                       Please study these warnings very carefully!
================================================================================


Removing linear dependencies from the Orbital basis set:
  S-ok PCD(Thresh=Auto)-ok done ( 0.896 sec)
  Dim=475 Nullspace=0 Removed 0 shells / 0 basis functions

Removing linear dependencies from the AuxJ basis set:
  V-ok PCD(Thresh=Auto)-ok done (32.012 sec)
  Dim=3632 Nullspace=0 Removed 0 shells / 0 basis functions

Removing linear dependencies from the AuxC basis set:
  V-ok PCD(Thresh=Auto)-ok done (31.969 sec)
  Dim=3632 Nullspace=0 Removed 0 shells / 0 basis functions

Removing linear dependencies from the AuxJK basis set:
  V-ok PCD(Thresh=Auto)-ok done (31.871 sec)
  Dim=3632 Nullspace=0 Removed 0 shells / 0 basis functions


WARNING: Found flag for RIJCOSX approximation but no HF exchange needed!
  ===> : RIJCOSX  will be disabled and Split-RI-J is turned on

WARNING: your system is open-shell and RHF/RKS was chosen
  ===> : WILL SWITCH to UHF/UKS


WARNING: Minnesota functionals are quite sensitive to the integration grid.
         see SE Wheeler, KN Houk, JCTC 2010, 6, 395,
             N Mardirossian, M Head-Gordon, JCTC 2016, 12, 4303.
         DEFGRID3 seems to be a minimum grid for reliable results with these functionals!
  ===> : Please increase the integration grid!


INFO   : the flag for use of the SHARK integral package has been found!

================================================================================
                                       INPUT FILE
================================================================================
NAME = input_2.inp
|  1> ! RIJCOSX nofrozencore ReducedPop printbasis
|  2> ! M06L ano-rcc-dzp autoaux
|  3> 
|  4> %maxcore 5000
|  5> %basis
|  6> PCDTrimBas overlap
|  7> PCDTrimAuxJ Coulomb
|  8> PCDTrimAuxJK Coulomb
|  9> PCDTrimAuxC Coulomb
| 10> PCDThresh -1
| 11> end
| 12> 
| 13> %basis
| 14> newgto Cu "ano-rcc-tzp" end
| 15> newgto S "ano-rcc-tzp" end
| 16> end
| 17> 
| 18> %pal
| 19> nprocs 12
| 20> end
| 21> 
| 22> % sym SymThresh 1e-2 end
| 23> * xyz -2 2 
| 24> Cu -6.691901043035611e-07 1.1048428701691408e-07 2.1307223720195347e-06
| 25> S -1.577143804923998 1.6726970100878802 0.34565565453196406
| 26> C -2.9576290913310674 1.1597715766324983 -0.5926260842086988
| 27> S 1.663410681847565 1.2417933517305748 1.0467972476784433
| 28> C 2.9956360363114096 0.12420170204404364 1.206061704163941
| 29> S -1.6634119390777236 -1.2417972587561723 -1.046788992103157
| 30> C -2.995634992478083 -0.12420051479143561 -1.2060642538390638
| 31> S 1.577145436797379 -1.6726918053253874 -0.345664329060001
| 32> C 2.9576297872199517 -1.1597707851307595 0.5926243844252836
| 33> C 4.061609591654757 -2.0129930176190163 0.7639076146080526
| 34> C 4.135202610198391 0.4729855777599727 1.9516006619696773
| 35> C 5.21722546300071 -0.3899687611144921 2.1090500251480178
| 36> H 4.152672181968195 1.4516357631422057 2.4203463839368236
| 37> C 5.180035550646124 -1.6462941431625902 1.5088278075446049
| 38> H 4.021129667946188 -2.992007892656351 0.2973508182014625
| 39> H 6.078499127608446 -0.08399782282251159 2.7015992230479777
| 40> H 6.011703965451921 -2.3403212982966126 1.6236242596151726
| 41> C -4.061612187361829 2.012987083504385 -0.7638996742939317
| 42> C -4.135198247016619 -0.47298359685721725 -1.9516097194897075
| 43> C -5.180035951988127 1.6462919434396694 -1.508827819530811
| 44> H -4.0211361188913175 2.992001289190772 -0.29734123803709656
| 45> C -5.217223776676059 0.3899689358967874 -2.109055136484469
| 46> H -4.152667818786423 -1.4516337822394503 -2.4203554414568536
| 47> H -6.011706775706238 2.340317230303632 -1.623617891420469
| 48> H -6.078494148537426 0.0840001373265363 -2.701606696462384
| 49> * 
| 50> 
| 51> % eprnmr
| 52> gtensor true
| 53> Nuclei = all H {aiso,adip,aorb,fgrad,rho}
| 54> Nuclei = all Cu {aiso,adip,aorb,fgrad,rho}
| 55> end
| 56> 
| 57>                          ****END OF INPUT****
================================================================================

------------------------------------------------------------------------------
                            SYMMETRY HANDLING SETUP
------------------------------------------------------------------------------

------------------
SYMMETRY DETECTION
------------------
The point group will now be determined using a tolerance of 1.0000e-02.
Splitting atom subsets according to nuclear charge, mass and basis set.
Splitting atom subsets according to distance from the molecule's center.
Identifying relative distance patterns of the atoms.
Splitting atom subsets according to atoms' relative distance patterns.
Bring atoms of each subset into input order.
The molecule is neither linear nor planar.
The molecule has a center of inversion.
Analyzing the first atom subset for its symmetry.
The atoms in the selected subset form a 4-gon with alternating side lengths.
Testing point group D2h.
Test failed.
Testing point group C2h.
Success!
This point group has been found:    C2h
Largest non-degenerate subgroup:    C2h


Symmetry-perfected Cartesians (point group C2h):

Atom          Symmetry-perfected Cartesians (x, y, z; au)
  0       0.000000000000    0.000000000000    0.000000000000
  1      -0.753720037886   -3.067843134673    3.053036345188
  2      -1.919367641934   -5.639382523219    1.345006906639
  3       0.753720037886    3.067843134673    3.053036345188
  4       1.919367641934    5.639382523219    1.345006906639
  5      -0.753720037886   -3.067843134673   -3.053036345188
  6      -1.919367641934   -5.639382523219   -1.345006906639
  7       0.753720037886    3.067843134673   -3.053036345188
  8       1.919367641934    5.639382523219   -1.345006906639
  9       2.892932777999    7.766235228489   -2.604142768055
 10       2.892932777999    7.766235228489    2.604142768055
 11       3.851107908161    9.852253366564    1.316043074193
 12       2.895085338677    7.744500952613    4.654866009683
 13       3.851107908161    9.852253366564   -1.316043074193
 14       2.895085338677    7.744500952613   -4.654866009683
 15       4.602001930683   11.457243667333    2.363572127436
 16       4.602001930683   11.457243667333   -2.363572127436
 17      -2.892932777999   -7.766235228489    2.604142768055
 18      -2.892932777999   -7.766235228489   -2.604142768055
 19      -3.851107908161   -9.852253366564    1.316043074193
 20      -2.895085338677   -7.744500952613    4.654866009683
 21      -3.851107908161   -9.852253366564   -1.316043074193
 22      -2.895085338677   -7.744500952613   -4.654866009683
 23      -4.602001930683  -11.457243667333    2.363572127436
 24      -4.602001930683  -11.457243667333   -2.363572127436


-----------------------------------------------
SYMMETRY-PERFECTED CARTESIAN COORDINATES (A.U.)
-----------------------------------------------
Warning (ORCA_SYM): Coordinates were not cleaned so far!

------------------
SYMMETRY REDUCTION
------------------
ORCA supports only abelian point groups.
It is now checked, if the determined point group is supported:
Point Group ( C2h   ) is          ... supported

(Re)building abelian point group:
Creating Character Table          ... done
Making direct product table       ... done
Constructing symmetry operations  ... done
Creating atom transfer table      ... done
Creating asymmetric unit          ... done

----------------------
ASYMMETRIC UNIT IN C2h
----------------------
  #  AT     MASS              COORDS (A.U.)             BAS
   0 Cu  63.5500   0.00000000   0.00000000   0.00000000   0
   1 S   32.0600  -0.75372004  -3.06784313   3.05303635   0
   2 C   12.0110  -1.91936764  -5.63938252   1.34500691   0
   9 C   12.0110   2.89293278   7.76623523  -2.60414277   0
  11 C   12.0110   3.85110791   9.85225337   1.31604307   0
  12 H    1.0080   2.89508534   7.74450095   4.65486601   0
  15 H    1.0080   4.60200193  11.45724367   2.36357213   0

----------------------
SYMMETRY ADAPTED BASIS
----------------------
The coefficients for the symmetry adapted linear combinations (SALCS)
of basis functions will now be computed:
Number of basis functions         ...   475
Preparing memory                  ... done
Constructing Gamma(red)           ... done
Reducing Gamma(red)               ... done
Constructing SALCs                ... done
Checking SALC integrity           ... nothing suspicious
Normalizing SALCs                 ... done

Storing the symmetry object:
Symmetry file                     ... input_2.sym.tmp
Writing symmetry information      ... done

                       ****************************
                       * Single Point Calculation *
                       ****************************

---------------------------------
CARTESIAN COORDINATES (ANGSTROEM)
---------------------------------
  Cu     0.000000    0.000000    0.000000
  S     -0.398851   -1.623433    1.615597
  C     -1.015686   -2.984233    0.711747
  S      0.398851    1.623433    1.615597
  C      1.015686    2.984233    0.711747
  S     -0.398851   -1.623433   -1.615597
  C     -1.015686   -2.984233   -0.711747
  S      0.398851    1.623433   -1.615597
  C      1.015686    2.984233   -0.711747
  C      1.530874    4.109715   -1.378053
  C      1.530874    4.109715    1.378053
  C      2.037919    5.213588    0.696420
  H      1.532013    4.098213    2.463249
  C      2.037919    5.213588   -0.696420
  H      1.532013    4.098213   -2.463249
  H      2.435275    6.062912    1.250749
  H      2.435275    6.062912   -1.250749
  C     -1.530874   -4.109715    1.378053
  C     -1.530874   -4.109715   -1.378053
  C     -2.037919   -5.213588    0.696420
  H     -1.532013   -4.098213    2.463249
  C     -2.037919   -5.213588   -0.696420
  H     -1.532013   -4.098213   -2.463249
  H     -2.435275   -6.062912    1.250749
  H     -2.435275   -6.062912   -1.250749

----------------------------
CARTESIAN COORDINATES (A.U.)
----------------------------
  NO LB      ZA    FRAG     MASS         X           Y           Z
   0 Cu   29.0000    0    63.550    0.000000    0.000000    0.000000
   1 S    16.0000    0    32.060   -0.753720   -3.067843    3.053036
   2 C     6.0000    0    12.011   -1.919368   -5.639383    1.345007
   3 S    16.0000    0    32.060    0.753720    3.067843    3.053036
   4 C     6.0000    0    12.011    1.919368    5.639383    1.345007
   5 S    16.0000    0    32.060   -0.753720   -3.067843   -3.053036
   6 C     6.0000    0    12.011   -1.919368   -5.639383   -1.345007
   7 S    16.0000    0    32.060    0.753720    3.067843   -3.053036
   8 C     6.0000    0    12.011    1.919368    5.639383   -1.345007
   9 C     6.0000    0    12.011    2.892933    7.766235   -2.604143
  10 C     6.0000    0    12.011    2.892933    7.766235    2.604143
  11 C     6.0000    0    12.011    3.851108    9.852253    1.316043
  12 H     1.0000    0     1.008    2.895085    7.744501    4.654866
  13 C     6.0000    0    12.011    3.851108    9.852253   -1.316043
  14 H     1.0000    0     1.008    2.895085    7.744501   -4.654866
  15 H     1.0000    0     1.008    4.602002   11.457244    2.363572
  16 H     1.0000    0     1.008    4.602002   11.457244   -2.363572
  17 C     6.0000    0    12.011   -2.892933   -7.766235    2.604143
  18 C     6.0000    0    12.011   -2.892933   -7.766235   -2.604143
  19 C     6.0000    0    12.011   -3.851108   -9.852253    1.316043
  20 H     1.0000    0     1.008   -2.895085   -7.744501    4.654866
  21 C     6.0000    0    12.011   -3.851108   -9.852253   -1.316043
  22 H     1.0000    0     1.008   -2.895085   -7.744501   -4.654866
  23 H     1.0000    0     1.008   -4.602002  -11.457244    2.363572
  24 H     1.0000    0     1.008   -4.602002  -11.457244   -2.363572

--------------------------------
INTERNAL COORDINATES (ANGSTROEM)
--------------------------------
 Cu     0   0   0     0.000000000000     0.00000000     0.00000000
 S      1   0   0     2.324816497502     0.00000000     0.00000000
 C      2   1   0     1.746197224693   104.18670516     0.00000000
 S      1   2   3     2.324815647239    91.95589410   170.67400793
 C      4   1   2     1.746196053605   104.18678645   170.67430106
 S      1   2   3     2.324815995701    88.04416615   350.67388003
 C      3   2   1     1.423494000000   121.17213918     7.82755164
 S      1   2   3     2.324816850048   179.99965070    76.42531058
 C      5   4   1     1.423494000001   121.17213330     7.82708406
 C      9   5   4     1.405737362225   118.29368747   180.21263874
 C      5   4   1     1.405734863296   120.53388775   188.04351367
 C     11   5   4     1.392929986372   122.40831543   179.71156809
 H     11   5   4     1.085257537707   117.76608979     0.13709174
 C     12  11   5     1.392840000023   119.29802257     0.07859835
 H     10   9   5     1.085257570368   117.76610072   179.65247191
 H     12  11   5     1.089277325734   120.11045794   180.47801104
 H     14  12  11     1.089276948098   120.59030822   180.40178523
 C      3   2   1     1.405734690526   120.53386859   188.04392507
 C      7   3   2     1.405735427021   118.29372026   180.21155993
 C     18   3   2     1.392930358846   122.40832119   179.71231029
 H     18   3   2     1.085257527731   117.76620949     0.13712423
 C     20  18   3     1.392840000001   119.29798050     0.07823618
 H     19   7   3     1.085257537707   117.76617174   179.65264429
 H     20  18   3     1.089276924586   120.11044979   180.47787871
 H     22  20  18     1.089275406120   120.59031982   180.40158792

---------------------------
INTERNAL COORDINATES (A.U.)
---------------------------
 Cu     0   0   0     0.000000000000     0.00000000     0.00000000
 S      1   0   0     4.393266491901     0.00000000     0.00000000
 C      2   1   0     3.299834530483   104.18670516     0.00000000
 S      1   2   3     4.393264885137    91.95589410   170.67400793
 C      4   1   2     3.299832317447   104.18678645   170.67430106
 S      1   2   3     4.393265543635    88.04416615   350.67388003
 C      3   2   1     2.690013813281   121.17213918     7.82755164
 S      1   2   3     4.393267158115   179.99965070    76.42531058
 C      5   4   1     2.690013813283   121.17213330     7.82708406
 C      9   5   4     2.656458630825   118.29368747   180.21263874
 C      5   4   1     2.656453908535   120.53388775   188.04351367
 C     11   5   4     2.632256197970   122.40831543   179.71156809
 H     11   5   4     2.050839531039   117.76608979     0.13709174
 C     12  11   5     2.632086148414   119.29802257     0.07859835
 H     10   9   5     2.050839592760   117.76610072   179.65247191
 H     12  11   5     2.058435829527   120.11045794   180.47801104
 H     14  12  11     2.058435115898   120.59030822   180.40178523
 C      3   2   1     2.656453582047   120.53386859   188.04392507
 C      7   3   2     2.656454973821   118.29372026   180.21155993
 C     18   3   2     2.632256901843   122.40832119   179.71231029
 H     18   3   2     2.050839512188   117.76620949     0.13712423
 C     20  18   3     2.632086148374   119.29798050     0.07823618
 H     19   7   3     2.050839531039   117.76617174   179.65264429
 H     20  18   3     2.058435071467   120.11044979   180.47787871
 H     22  20  18     2.058432201982   120.59031982   180.40158792

---------------------
BASIS SET INFORMATION
---------------------
There are 4 groups of distinct atoms

 Group   1 Type Cu  : 126s75p30d12f4g contracted to 6s5p3d2f1g pattern {212121212121/1515151515/101010/66/4}
 Group   2 Type S   : 85s48p10d4f contracted to 5s4p2d1f pattern {1717171717/12121212/55/4}
 Group   3 Type C   : 42s18p4d contracted to 3s2p1d pattern {141414/99/4}
 Group   4 Type H   : 24s8p3d contracted to 3s2p1d pattern {888/44/3}

Atom   0Cu   basis set group =>   1
Atom   1S    basis set group =>   2
Atom   2C    basis set group =>   3
Atom   3S    basis set group =>   2
Atom   4C    basis set group =>   3
Atom   5S    basis set group =>   2
Atom   6C    basis set group =>   3
Atom   7S    basis set group =>   2
Atom   8C    basis set group =>   3
Atom   9C    basis set group =>   3
Atom  10C    basis set group =>   3
Atom  11C    basis set group =>   3
Atom  12H    basis set group =>   4
Atom  13C    basis set group =>   3
Atom  14H    basis set group =>   4
Atom  15H    basis set group =>   4
Atom  16H    basis set group =>   4
Atom  17C    basis set group =>   3
Atom  18C    basis set group =>   3
Atom  19C    basis set group =>   3
Atom  20H    basis set group =>   4
Atom  21C    basis set group =>   3
Atom  22H    basis set group =>   4
Atom  23H    basis set group =>   4
Atom  24H    basis set group =>   4

-------------------------
BASIS SET IN INPUT FORMAT
-------------------------

 # Basis set for element : H 
 NewGTO H 
 S 8 
   1     188.6144500000      0.0009638500
   2      28.2765960000      0.0074919600
   3       6.4248300000      0.0375954101
   4       1.8150410000      0.1433949804
   5       0.5910630000      0.3486363010
   6       0.2121490000      0.4382973612
   7       0.0798910000      0.1651066105
   8       0.0279620000      0.0210228701
 S 8 
   1     188.6144500000     -0.0013119000
   2      28.2765960000     -0.0103451000
   3       6.4248300000     -0.0504952998
   4       1.8150410000     -0.2073854991
   5       0.5910630000     -0.4350884981
   6       0.2121490000     -0.0247296999
   7       0.0798910000      0.3225259886
   8       0.0279620000      0.7072753770
 S 8 
   1     188.6144500000      0.0024224000
   2      28.2765960000      0.0203381700
   3       6.4248300000      0.0896393498
   4       1.8150410000      0.4422907090
   5       0.5910630000      0.5757143887
   6       0.2121490000     -0.9802889977
   7       0.0798910000     -0.6721537984
   8       0.0279620000      1.1417684974
 P 4 
   1       2.3050000000      0.1127901896
   2       0.8067500000      0.4185075284
   3       0.2823620000      0.4700077282
   4       0.0988270000      0.1826260293
 P 4 
   1       2.3050000000     -0.2108687968
   2       0.8067500000     -0.5943795909
   3       0.2823620000      0.0896888786
   4       0.0988270000      0.8611633869
 D 3 
   1       1.8190000000      0.2705134090
   2       0.7276000000      0.5510124980
   3       0.2910400000      0.3310866388
  end;

 # Basis set for element : C 
 NewGTO C 
 S 14 
   1   50557.5010000000      0.0001128874
   2    7524.7856000000      0.0005295373
   3    1694.3276000000      0.0024500383
   4     472.8227900000      0.0100539847
   5     151.7107500000      0.0354539806
   6      53.9187460000      0.1044071086
   7      20.6593110000      0.2412894918
   8       8.3839760000      0.3834225483
   9       3.5770150000      0.3078514393
  10       1.5471180000      0.0687244299
  11       0.6130130000      0.0002224445
  12       0.2460680000      0.0019767489
  13       0.0990870000      0.0020578594
  14       0.0346800000      0.0004182020
 S 14 
   1   50557.5010000000     -0.0000250742
   2    7524.7856000000     -0.0001175945
   3    1694.3276000000     -0.0005456275
   4     472.8227900000     -0.0022450771
   5     151.7107500000     -0.0080434718
   6      53.9187460000     -0.0244258871
   7      20.6593110000     -0.0613679118
   8       8.3839760000     -0.1177767835
   9       3.5770150000     -0.1550487783
  10       1.5471180000     -0.0193331686
  11       0.6130130000      0.3996930678
  12       0.2460680000      0.5589420949
  13       0.0990870000      0.1711195023
  14       0.0346800000      0.0074562446
 S 14 
   1   50557.5010000000      0.0000161788
   2    7524.7856000000      0.0000749712
   3    1694.3276000000      0.0003573467
   4     472.8227900000      0.0014349316
   5     151.7107500000      0.0055086779
   6      53.9187460000      0.0169149690
   7      20.6593110000      0.0514166524
   8       8.3839760000      0.1137343741
   9       3.5770150000      0.2337183944
  10       1.5471180000     -0.0718378257
  11       0.6130130000     -1.0490908711
  12       0.2460680000     -0.0666273399
  13       0.0990870000      1.0119993798
  14       0.0346800000      0.1656046386
 P 9 
   1      83.3331550000      0.0013446560
   2      19.5576110000      0.0102355550
   3       6.0803650000      0.0452006710
   4       2.1793170000      0.1410756198
   5       0.8651500000      0.3047388085
   6       0.3619440000      0.3995281011
   7       0.1547400000      0.2719163432
   8       0.0654290000      0.0585766933
   9       0.0229000000     -0.0001263813
 P 9 
   1      83.3331550000     -0.0017715885
   2      19.5576110000     -0.0145621810
   3       6.0803650000     -0.0574573357
   4       2.1793170000     -0.2126582848
   5       0.8651500000     -0.5271712924
   6       0.3619440000     -0.0929697730
   7       0.1547400000      0.6630031669
   8       0.0654290000      0.3360877793
   9       0.0229000000      0.0054695244
 D 4 
   1       1.9000000000      0.1424518048
   2       0.6650000000      0.5591973019
   3       0.2327500000      0.4430004380
   4       0.0814630000      0.0410665370
  end;

 # Basis set for element : S 
 NewGTO S 
 S 17 
   1  346348.2300000000      0.0002909200
   2   49391.1460000000      0.0009466500
   3   14610.9900000000      0.0021192300
   4    5187.2095000000      0.0060216101
   5    1980.9676000000      0.0165972602
   6     784.6313900000      0.0468398906
   7     317.3277900000      0.1224258115
   8     130.0197600000      0.2702243534
   9      53.7382080000      0.4054165750
  10      22.3458960000      0.2557152732
  11       9.3332512000      0.0267169303
  12       3.9111868000      0.0039033200
  13       1.6432066000     -0.0020418900
  14       0.6917456000      0.0014903400
  15       0.2916736000     -0.0006210700
  16       0.1231441000      0.0004416700
  17       0.0492576000     -0.0000032400
 S 17 
   1  346348.2300000000     -0.0000810100
   2   49391.1460000000     -0.0002638800
   3   14610.9900000000     -0.0005926300
   4    5187.2095000000     -0.0016876200
   5    1980.9676000000     -0.0047035700
   6     784.6313900000     -0.0135060701
   7     317.3277900000     -0.0371195902
   8     130.0197600000     -0.0911472306
   9      53.7382080000     -0.1778041811
  10      22.3458960000     -0.1706959211
  11       9.3332512000      0.1742316311
  12       3.9111868000      0.6328368240
  13       1.6432066000      0.3588663523
  14       0.6917456000     -0.0009644400
  15       0.2916736000      0.0065994200
  16       0.1231441000     -0.0052226600
  17       0.0492576000      0.0002938500
 S 17 
   1  346348.2300000000      0.0000228000
   2   49391.1460000000      0.0000742100
   3   14610.9900000000      0.0001671900
   4    5187.2095000000      0.0004737200
   5    1980.9676000000      0.0013310600
   6     784.6313900000      0.0037980100
   7     317.3277900000      0.0105810799
   8     130.0197600000      0.0260196998
   9      53.7382080000      0.0527900097
  10      22.3458960000      0.0519187797
  11       9.3332512000     -0.0569282797
  12       3.9111868000     -0.2909518982
  13       1.6432066000     -0.3163282781
  14       0.6917456000      0.2930993782
  15       0.2916736000      0.6678742660
  16       0.1231441000      0.2872519883
  17       0.0492576000      0.0151688699
 S 17 
   1  346348.2300000000     -0.0000234200
   2   49391.1460000000     -0.0000763700
   3   14610.9900000000     -0.0001708900
   4    5187.2095000000     -0.0004899900
   5    1980.9676000000     -0.0013529300
   6     784.6313900000     -0.0039282000
   7     317.3277900000     -0.0106763700
   8     130.0197600000     -0.0266181300
   9      53.7382080000     -0.0518302700
  10      22.3458960000     -0.0536224500
  11       9.3332512000      0.0708061100
  12       3.9111868000      0.2862498100
  13       1.6432066000      0.4962630700
  14       0.6917456000     -1.0710928201
  15       0.2916736000     -0.7920747001
  16       0.1231441000      1.1988185301
  17       0.0492576000      0.3247575000
 S 17 
   1  346348.2300000000      0.0000338900
   2   49391.1460000000      0.0001080700
   3   14610.9900000000      0.0002591100
   4    5187.2095000000      0.0006557500
   5    1980.9676000000      0.0021438200
   6     784.6313900000      0.0051887500
   7     317.3277900000      0.0175307300
   8     130.0197600000      0.0367282101
   9      53.7382080000      0.0984078002
  10      22.3458960000      0.0619843901
  11       9.3332512000     -0.0870655502
  12       3.9111868000     -0.7402903815
  13       1.6432066000     -0.2511528605
  14       0.6917456000      3.1197276262
  15       0.2916736000     -3.2657334365
  16       0.1231441000      0.4920158210
  17       0.0492576000      0.8345623917
 P 12 
   1    1129.1269000000      0.0009058600
   2     274.0351500000      0.0060003300
   3      97.4025840000      0.0253116602
   4      38.0855180000      0.0919894107
   5      15.4710330000      0.2416502819
   6       6.4056590000      0.4102909632
   7       2.6812828000      0.3521928728
   8       1.1300050000      0.0828164507
   9       0.4783995000      0.0000928000
  10       0.2031805000     -0.0022389700
  11       0.0864923000     -0.0013105000
  12       0.0345969000     -0.0002209200
 P 12 
   1    1129.1269000000     -0.0002245400
   2     274.0351500000     -0.0014885000
   3      97.4025840000     -0.0063494199
   4      38.0855180000     -0.0234428198
   5      15.4710330000     -0.0637025693
   6       6.4056590000     -0.1119708288
   7       2.6812828000     -0.1034727789
   8       1.1300050000      0.1090388789
   9       0.4783995000      0.4183874056
  10       0.2031805000      0.4369409054
  11       0.0864923000      0.1861970080
  12       0.0345969000      0.0283711897
 P 12 
   1    1129.1269000000      0.0002148100
   2     274.0351500000      0.0013786800
   3      97.4025840000      0.0061270600
   4      38.0855180000      0.0217045700
   5      15.4710330000      0.0624373400
   6       6.4056590000      0.1010861900
   7       2.6812828000      0.1170823100
   8       1.1300050000     -0.1626182800
   9       0.4783995000     -0.6646128299
  10       0.2031805000     -0.0025671900
  11       0.0864923000      0.7102817299
  12       0.0345969000      0.3213441399
 P 12 
   1    1129.1269000000     -0.0003343800
   2     274.0351500000     -0.0018333100
   3      97.4025840000     -0.0098956400
   4      38.0855180000     -0.0285233600
   5      15.4710330000     -0.1046413801
   6       6.4056590000     -0.1132883801
   7       2.6812828000     -0.2785634503
   8       1.1300050000      0.7352483107
   9       0.4783995000      0.6335807606
  10       0.2031805000     -1.5012724614
  11       0.0864923000      0.2467031202
  12       0.0345969000      0.7157853907
 D 5 
   1       3.0053679000      0.0358149997
   2       1.2172976000      0.1673418584
   3       0.4930556000      0.5760525045
   4       0.1997078000      0.3501406566
   5       0.0798831000      0.0446746096
 D 5 
   1       3.0053679000     -0.0833935699
   2       1.2172976000      0.5141401396
   3       0.4930556000      0.5282255395
   4       0.1997078000     -0.8555141893
   5       0.0798831000     -0.2680324398
 F 4 
   1       1.1000988000      0.2161817184
   2       0.5272133000      0.5455285260
   3       0.2526627000      0.3289330076
   4       0.1010651000      0.0748646694
  end;

 # Basis set for element : Cu
 NewGTO Cu
 S 21 
   1  9148883.0000000000      0.0001172200
   2  1369956.0000000000      0.0003315500
   3  311782.6000000000      0.0008824300
   4   88318.8000000000      0.0021722900
   5   28815.5300000000      0.0052954701
   6   10403.4600000000      0.0129663001
   7    4057.7910000000      0.0318805003
   8    1682.9740000000      0.0757656907
   9     733.7543000000      0.1624463715
  10     333.2677000000      0.2843595927
  11     156.4338000000      0.3417364333
  12      74.6972100000      0.2095508720
  13      33.3226200000      0.0354475103
  14      16.6223700000     -0.0024399600
  15       8.2082600000      0.0014699000
  16       3.6094000000     -0.0006437900
  17       1.6834490000      0.0002473800
  18       0.7337570000     -0.0000811800
  19       0.1102070000      0.0000161500
  20       0.0387860000     -0.0000123300
  21       0.0155140000      0.0000045200
 S 21 
   1  9148883.0000000000     -0.0000367500
   2  1369956.0000000000     -0.0001040300
   3  311782.6000000000     -0.0002773300
   4   88318.8000000000     -0.0006841700
   5   28815.5300000000     -0.0016768600
   6   10403.4600000000     -0.0041346000
   7    4057.7910000000     -0.0103512700
   8    1682.9740000000     -0.0253479100
   9     733.7543000000     -0.0583694699
  10     333.2677000000     -0.1167328398
  11     156.4338000000     -0.1846685996
  12      74.6972100000     -0.1470089897
  13      33.3226200000      0.1848325696
  14      16.6223700000      0.5677360889
  15       8.2082600000      0.3795609193
  16       3.6094000000      0.0470375499
  17       1.6834490000     -0.0007278300
  18       0.7337570000      0.0010297600
  19       0.1102070000     -0.0000702000
  20       0.0387860000      0.0000709000
  21       0.0155140000     -0.0000245400
 S 21 
   1  9148883.0000000000      0.0000138300
   2  1369956.0000000000      0.0000391400
   3  311782.6000000000      0.0001043900
   4   88318.8000000000      0.0002574500
   5   28815.5300000000      0.0006320300
   6   10403.4600000000      0.0015571800
   7    4057.7910000000      0.0039165900
   8    1682.9740000000      0.0095947599
   9     733.7543000000      0.0223883699
  10     333.2677000000      0.0452860597
  11     156.4338000000      0.0749837795
  12      74.6972100000      0.0618816996
  13      33.3226200000     -0.0904732694
  14      16.6223700000     -0.3928847174
  15       8.2082600000     -0.3566495576
  16       3.6094000000      0.3455479277
  17       1.6834490000      0.7063919653
  18       0.7337570000      0.2533591083
  19       0.1102070000      0.0065874900
  20       0.0387860000     -0.0004424700
  21       0.0155140000      0.0007233800
 S 21 
   1  9148883.0000000000     -0.0000027100
   2  1369956.0000000000     -0.0000076600
   3  311782.6000000000     -0.0000204700
   4   88318.8000000000     -0.0000503000
   5   28815.5300000000     -0.0001244200
   6   10403.4600000000     -0.0003026900
   7    4057.7910000000     -0.0007762800
   8    1682.9740000000     -0.0018524000
   9     733.7543000000     -0.0044827000
  10     333.2677000000     -0.0086602401
  11     156.4338000000     -0.0154472601
  12      74.6972100000     -0.0108986401
  13      33.3226200000      0.0146786701
  14      16.6223700000      0.0915412206
  15       8.2082600000      0.0633085704
  16       3.6094000000     -0.0609387904
  17       1.6834490000     -0.2714854517
  18       0.7337570000     -0.1013894406
  19       0.1102070000      0.7121218043
  20       0.0387860000      0.3461317521
  21       0.0155140000      0.0719870904
 S 21 
   1  9148883.0000000000      0.0000034600
   2  1369956.0000000000      0.0000097900
   3  311782.6000000000      0.0000262600
   4   88318.8000000000      0.0000639200
   5   28815.5300000000      0.0001608700
   6   10403.4600000000      0.0003802300
   7    4057.7910000000      0.0010171600
   8    1682.9740000000      0.0022915200
   9     733.7543000000      0.0059749700
  10     333.2677000000      0.0104469500
  11     156.4338000000      0.0215158300
  12      74.6972100000      0.0103012800
  13      33.3226200000     -0.0098432400
  14      16.6223700000     -0.1429262997
  15       8.2082600000     -0.0561270699
  16       3.6094000000      0.0913564998
  17       1.6834490000      0.4583140189
  18       0.7337570000     -0.1972673995
  19       0.1102070000     -1.3031015670
  20       0.0387860000      0.8797556780
  21       0.0155140000      0.5731088887
 S 21 
   1  9148883.0000000000     -0.0000140100
   2  1369956.0000000000     -0.0000395900
   3  311782.6000000000     -0.0001061200
   4   88318.8000000000     -0.0002590000
   5   28815.5300000000     -0.0006486500
   6   10403.4600000000     -0.0015477000
   7    4057.7910000000     -0.0040834200
   8    1682.9740000000     -0.0094020600
   9     733.7543000000     -0.0238911700
  10     333.2677000000     -0.0435983200
  11     156.4338000000     -0.0858885701
  12      74.6972100000     -0.0473486501
  13      33.3226200000      0.0638259201
  14      16.6223700000      0.5936354107
  15       8.2082600000      0.4150606205
  16       3.6094000000     -1.7002794219
  17       1.6834490000     -0.2979995603
  18       0.7337570000      1.7071942519
  19       0.1102070000     -0.6560005307
  20       0.0387860000     -0.3192452404
  21       0.0155140000      0.6177245607
 P 15 
   1    9713.2530000000      0.0003998700
   2    2300.8890000000      0.0021015700
   3     746.7706000000      0.0100109700
   4     284.6806000000      0.0383603898
   5     119.9999000000      0.1162675595
   6      54.0738600000      0.2589983089
   7      25.3732100000      0.3842822584
   8      12.2096200000      0.2991120987
   9       5.7574210000      0.0800067197
  10       2.6734020000      0.0031944000
  11       1.1868350000      0.0014725200
  12       0.4815930000     -0.0002339100
  13       0.1926370000      0.0002076100
  14       0.0770550000     -0.0000896300
  15       0.0308220000      0.0000278300
 P 15 
   1    9713.2530000000     -0.0001487900
   2    2300.8890000000     -0.0007826200
   3     746.7706000000     -0.0037622900
   4     284.6806000000     -0.0145796799
   5     119.9999000000     -0.0457109297
   6      54.0738600000     -0.1059301293
   7      25.3732100000     -0.1683622789
   8      12.2096200000     -0.1037321293
   9       5.7574210000      0.2108315487
  10       2.6734020000      0.4891644269
  11       1.1868350000      0.3846863776
  12       0.4815930000      0.0852933795
  13       0.1926370000     -0.0016104500
  14       0.0770550000      0.0020653000
  15       0.0308220000     -0.0006417500
 P 15 
   1    9713.2530000000      0.0000505300
   2    2300.8890000000      0.0002671900
   3     746.7706000000      0.0012771800
   4     284.6806000000      0.0049976000
   5     119.9999000000      0.0156137599
   6      54.0738600000      0.0368970098
   7      25.3732100000      0.0579646897
   8      12.2096200000      0.0379196598
   9       5.7574210000     -0.1170649894
  10       2.6734020000     -0.2091225689
  11       1.1868350000     -0.0580053197
  12       0.4815930000      0.1643073591
  13       0.1926370000      0.5288546572
  14       0.0770550000      0.3737301580
  15       0.0308220000      0.0839986596
 P 15 
   1    9713.2530000000     -0.0001587800
   2    2300.8890000000     -0.0008535900
   3     746.7706000000     -0.0039991900
   4     284.6806000000     -0.0160809199
   5     119.9999000000     -0.0492486397
   6      54.0738600000     -0.1216567894
   7      25.3732100000     -0.1771336691
   8      12.2096200000     -0.1444819692
   9       5.7574210000      0.6474331066
  10       2.6734020000      0.5479769171
  11       1.1868350000     -0.7818032059
  12       0.4815930000     -0.5260777772
  13       0.1926370000      0.2243717688
  14       0.0770550000      0.3339245282
  15       0.0308220000      0.1444637392
 P 15 
   1    9713.2530000000      0.0001267900
   2    2300.8890000000      0.0006839700
   3     746.7706000000      0.0032029100
   4     284.6806000000      0.0130135100
   5     119.9999000000      0.0402137099
   6      54.0738600000      0.1015010898
   7      25.3732100000      0.1370095397
   8      12.2096200000      0.1062897198
   9       5.7574210000     -0.8339026482
  10       2.6734020000      0.1441200197
  11       1.1868350000      0.9830123878
  12       0.4815930000     -0.5295641788
  13       0.1926370000     -0.7530398383
  14       0.0770550000      0.4428869990
  15       0.0308220000      0.5751158887
 D 10 
   1     249.3497000000      0.0013456100
   2      74.6383700000      0.0108098300
   3      28.3764100000      0.0473379301
   4      11.9489300000      0.1377258202
   5       5.3176460000      0.2626383304
   6       2.3644170000      0.3347040105
   7       1.0123860000      0.3100059705
   8       0.4067730000      0.2131681903
   9       0.1473310000      0.0786536501
  10       0.0589320000      0.0060309600
 D 10 
   1     249.3497000000     -0.0015835900
   2      74.6383700000     -0.0128111601
   3      28.3764100000     -0.0564267902
   4      11.9489300000     -0.1664139307
   5       5.3176460000     -0.3510601415
   6       2.3644170000     -0.2371789010
   7       1.0123860000      0.2199464110
   8       0.4067730000      0.4884136321
   9       0.1473310000      0.2953713113
  10       0.0589320000      0.0429553902
 D 10 
   1     249.3497000000      0.0019111600
   2      74.6383700000      0.0177249500
   3      28.3764100000      0.0705638099
   4      11.9489300000      0.2290610097
   5       5.3176460000      0.4393851094
   6       2.3644170000     -0.2673990797
   7       1.0123860000     -0.6259062392
   8       0.4067730000      0.1221133998
   9       0.1473310000      0.5368362893
  10       0.0589320000      0.1975005497
 F 6 
   1      15.4333000000      0.0368206299
   2       6.1172000000      0.2459141793
   3       2.4246000000      0.5011268786
   4       0.9610000000      0.3585064790
   5       0.3809000000      0.1472806196
   6       0.1510000000      0.0256474799
 F 6 
   1      15.4333000000     -0.0620033603
   2       6.1172000000     -0.5287666929
   3       2.4246000000     -0.2907838616
   4       0.9610000000      0.5212415728
   5       0.3809000000      0.3753220521
   6       0.1510000000      0.1065979806
 G 4 
   1       8.7286000000      0.1690384791
   2       3.4308000000      0.6065418469
   3       1.3485000000      0.3797989880
   4       0.5300000000      0.1036775695
  end;

---------------------------------
AUXILIARY/J BASIS SET INFORMATION
---------------------------------
There are 4 groups of distinct atoms

 Group   1 Type Cu  : 23s20p18d17f13g5h contracted to 23s20p18d17f13g5h pattern {11111111111111111111111/11111111111111111111/111111111111111111/11111111111111111/1111111111111/11111}
 Group   2 Type S   : 20s17p16d7f contracted to 20s17p16d7f pattern {11111111111111111111/11111111111111111/1111111111111111/1111111}
 Group   3 Type C   : 17s14p13d4f contracted to 17s14p13d4f pattern {11111111111111111/11111111111111/1111111111111/1111}
 Group   4 Type H   : 12s5p4d3f contracted to 12s5p4d3f pattern {111111111111/11111/1111/111}

Atom   0Cu   basis set group =>   1
Atom   1S    basis set group =>   2
Atom   2C    basis set group =>   3
Atom   3S    basis set group =>   2
Atom   4C    basis set group =>   3
Atom   5S    basis set group =>   2
Atom   6C    basis set group =>   3
Atom   7S    basis set group =>   2
Atom   8C    basis set group =>   3
Atom   9C    basis set group =>   3
Atom  10C    basis set group =>   3
Atom  11C    basis set group =>   3
Atom  12H    basis set group =>   4
Atom  13C    basis set group =>   3
Atom  14H    basis set group =>   4
Atom  15H    basis set group =>   4
Atom  16H    basis set group =>   4
Atom  17C    basis set group =>   3
Atom  18C    basis set group =>   3
Atom  19C    basis set group =>   3
Atom  20H    basis set group =>   4
Atom  21C    basis set group =>   3
Atom  22H    basis set group =>   4
Atom  23H    basis set group =>   4
Atom  24H    basis set group =>   4

-------------------------------------
AUXILIARY/J BASIS SET IN INPUT FORMAT
-------------------------------------

 # Auxiliary/J basis set for element : H 
 NewAuxJGTO H 
 S 1 
   1      35.9414656527      1.0000000000
 S 1 
   1      19.9674809182      1.0000000000
 S 1 
   1      11.0930449545      1.0000000000
 S 1 
   1       6.1628027525      1.0000000000
 S 1 
   1       3.4237793070      1.0000000000
 S 1 
   1       1.9020996150      1.0000000000
 S 1 
   1       1.0567220083      1.0000000000
 S 1 
   1       0.5870677824      1.0000000000
 S 1 
   1       0.3261487680      1.0000000000
 S 1 
   1       0.1811937600      1.0000000000
 S 1 
   1       0.1006632000      1.0000000000
 S 1 
   1       0.0559240000      1.0000000000
 P 1 
   1       2.0286240000      1.0000000000
 P 1 
   1       1.0143120000      1.0000000000
 P 1 
   1       0.5071560000      1.0000000000
 P 1 
   1       0.2535780000      1.0000000000
 P 1 
   1       0.1267890000      1.0000000000
 D 1 
   1       2.1046197920      1.0000000000
 D 1 
   1       0.9566453600      1.0000000000
 D 1 
   1       0.4348388000      1.0000000000
 D 1 
   1       0.1976540000      1.0000000000
 F 1 
   1       1.8869562800      1.0000000000
 F 1 
   1       0.8577074000      1.0000000000
 F 1 
   1       0.3898670000      1.0000000000
  end;

 # Auxiliary/J basis set for element : C 
 NewAuxJGTO C 
 S 1 
   1     556.1930524224      1.0000000000
 S 1 
   1     308.9961402347      1.0000000000
 S 1 
   1     171.6645223526      1.0000000000
 S 1 
   1      95.3691790848      1.0000000000
 S 1 
   1      52.9828772693      1.0000000000
 S 1 
   1      29.4349318163      1.0000000000
 S 1 
   1      16.3527398979      1.0000000000
 S 1 
   1       9.0848554989      1.0000000000
 S 1 
   1       5.0471419438      1.0000000000
 S 1 
   1       2.8039677466      1.0000000000
 S 1 
   1       1.5577598592      1.0000000000
 S 1 
   1       0.8654221440      1.0000000000
 S 1 
   1       0.4807900800      1.0000000000
 S 1 
   1       0.2671056000      1.0000000000
 S 1 
   1       0.1483920000      1.0000000000
 S 1 
   1       0.0824400000      1.0000000000
 S 1 
   1       0.0458000000      1.0000000000
 P 1 
   1      95.3691790848      1.0000000000
 P 1 
   1      52.9828772693      1.0000000000
 P 1 
   1      29.4349318163      1.0000000000
 P 1 
   1      16.3527398979      1.0000000000
 P 1 
   1       9.0848554989      1.0000000000
 P 1 
   1       5.0471419438      1.0000000000
 P 1 
   1       2.8039677466      1.0000000000
 P 1 
   1       1.5577598592      1.0000000000
 P 1 
   1       0.8654221440      1.0000000000
 P 1 
   1       0.4807900800      1.0000000000
 P 1 
   1       0.2671056000      1.0000000000
 P 1 
   1       0.1483920000      1.0000000000
 P 1 
   1       0.0824400000      1.0000000000
 P 1 
   1       0.0458000000      1.0000000000
 D 1 
   1      52.9828772693      1.0000000000
 D 1 
   1      29.4349318163      1.0000000000
 D 1 
   1      16.3527398979      1.0000000000
 D 1 
   1       9.0848554989      1.0000000000
 D 1 
   1       5.0471419438      1.0000000000
 D 1 
   1       2.8039677466      1.0000000000
 D 1 
   1       1.5577598592      1.0000000000
 D 1 
   1       0.8654221440      1.0000000000
 D 1 
   1       0.4807900800      1.0000000000
 D 1 
   1       0.2671056000      1.0000000000
 D 1 
   1       0.1483920000      1.0000000000
 D 1 
   1       0.0824400000      1.0000000000
 D 1 
   1       0.0458000000      1.0000000000
 F 1 
   1       1.1112572240      1.0000000000
 F 1 
   1       0.5051169200      1.0000000000
 F 1 
   1       0.2295986000      1.0000000000
 F 1 
   1       0.1043630000      1.0000000000
  end;

 # Auxiliary/J basis set for element : S 
 NewAuxJGTO S 
 S 1 
   1    4900.5494839448      1.0000000000
 S 1 
   1    2722.5274910805      1.0000000000
 S 1 
   1    1512.5152728225      1.0000000000
 S 1 
   1     840.2862626792      1.0000000000
 S 1 
   1     466.8257014884      1.0000000000
 S 1 
   1     259.3476119380      1.0000000000
 S 1 
   1     144.0820066322      1.0000000000
 S 1 
   1      80.0455592401      1.0000000000
 S 1 
   1      44.4697551334      1.0000000000
 S 1 
   1      24.7054195186      1.0000000000
 S 1 
   1      13.7252330659      1.0000000000
 S 1 
   1       7.6251294810      1.0000000000
 S 1 
   1       4.2361830450      1.0000000000
 S 1 
   1       2.3534350250      1.0000000000
 S 1 
   1       1.3074639028      1.0000000000
 S 1 
   1       0.7263688349      1.0000000000
 S 1 
   1       0.4035382416      1.0000000000
 S 1 
   1       0.2241879120      1.0000000000
 S 1 
   1       0.1245488400      1.0000000000
 S 1 
   1       0.0691938000      1.0000000000
 P 1 
   1     840.2862626792      1.0000000000
 P 1 
   1     466.8257014884      1.0000000000
 P 1 
   1     259.3476119380      1.0000000000
 P 1 
   1     144.0820066322      1.0000000000
 P 1 
   1      80.0455592401      1.0000000000
 P 1 
   1      44.4697551334      1.0000000000
 P 1 
   1      24.7054195186      1.0000000000
 P 1 
   1      13.7252330659      1.0000000000
 P 1 
   1       7.6251294810      1.0000000000
 P 1 
   1       4.2361830450      1.0000000000
 P 1 
   1       2.3534350250      1.0000000000
 P 1 
   1       1.3074639028      1.0000000000
 P 1 
   1       0.7263688349      1.0000000000
 P 1 
   1       0.4035382416      1.0000000000
 P 1 
   1       0.2241879120      1.0000000000
 P 1 
   1       0.1245488400      1.0000000000
 P 1 
   1       0.0691938000      1.0000000000
 D 1 
   1     466.8257014884      1.0000000000
 D 1 
   1     259.3476119380      1.0000000000
 D 1 
   1     144.0820066322      1.0000000000
 D 1 
   1      80.0455592401      1.0000000000
 D 1 
   1      44.4697551334      1.0000000000
 D 1 
   1      24.7054195186      1.0000000000
 D 1 
   1      13.7252330659      1.0000000000
 D 1 
   1       7.6251294810      1.0000000000
 D 1 
   1       4.2361830450      1.0000000000
 D 1 
   1       2.3534350250      1.0000000000
 D 1 
   1       1.3074639028      1.0000000000
 D 1 
   1       0.7263688349      1.0000000000
 D 1 
   1       0.4035382416      1.0000000000
 D 1 
   1       0.2241879120      1.0000000000
 D 1 
   1       0.1245488400      1.0000000000
 D 1 
   1       0.0691938000      1.0000000000
 F 1 
   1      12.9797314099      1.0000000000
 F 1 
   1       5.8998779136      1.0000000000
 F 1 
   1       2.6817626880      1.0000000000
 F 1 
   1       1.2189830400      1.0000000000
 F 1 
   1       0.5540832000      1.0000000000
 F 1 
   1       0.2518560000      1.0000000000
 F 1 
   1       0.1144800000      1.0000000000
  end;

 # Auxiliary/J basis set for element : Cu
 NewAuxJGTO Cu
 S 1 
   1   12815.8936556437      1.0000000000
 S 1 
   1    7119.9409198021      1.0000000000
 S 1 
   1    3955.5227332234      1.0000000000
 S 1 
   1    2197.5126295685      1.0000000000
 S 1 
   1    1220.8403497603      1.0000000000
 S 1 
   1     678.2446387557      1.0000000000
 S 1 
   1     376.8025770865      1.0000000000
 S 1 
   1     209.3347650481      1.0000000000
 S 1 
   1     116.2970916934      1.0000000000
 S 1 
   1      64.6094953852      1.0000000000
 S 1 
   1      35.8941641029      1.0000000000
 S 1 
   1      19.9412022794      1.0000000000
 S 1 
   1      11.0784457108      1.0000000000
 S 1 
   1       6.1546920615      1.0000000000
 S 1 
   1       3.4192733675      1.0000000000
 S 1 
   1       1.8995963153      1.0000000000
 S 1 
   1       1.0553312863      1.0000000000
 S 1 
   1       0.5862951590      1.0000000000
 S 1 
   1       0.3257195328      1.0000000000
 S 1 
   1       0.1809552960      1.0000000000
 S 1 
   1       0.1005307200      1.0000000000
 S 1 
   1       0.0558504000      1.0000000000
 S 1 
   1       0.0310280000      1.0000000000
 P 1 
   1    3281.6792962385      1.0000000000
 P 1 
   1    1823.1551645769      1.0000000000
 P 1 
   1    1012.8639803205      1.0000000000
 P 1 
   1     562.7022112892      1.0000000000
 P 1 
   1     312.6123396051      1.0000000000
 P 1 
   1     173.6735220028      1.0000000000
 P 1 
   1      96.4852900016      1.0000000000
 P 1 
   1      53.6029388898      1.0000000000
 P 1 
   1      29.7794104943      1.0000000000
 P 1 
   1      16.5441169413      1.0000000000
 P 1 
   1       9.1911760785      1.0000000000
 P 1 
   1       5.1062089325      1.0000000000
 P 1 
   1       2.8367827403      1.0000000000
 P 1 
   1       1.5759904113      1.0000000000
 P 1 
   1       0.8755502285      1.0000000000
 P 1 
   1       0.4864167936      1.0000000000
 P 1 
   1       0.2702315520      1.0000000000
 P 1 
   1       0.1501286400      1.0000000000
 P 1 
   1       0.0834048000      1.0000000000
 P 1 
   1       0.0463360000      1.0000000000
 D 1 
   1    1347.4833218853      1.0000000000
 D 1 
   1     748.6018454918      1.0000000000
 D 1 
   1     415.8899141621      1.0000000000
 D 1 
   1     231.0499523123      1.0000000000
 D 1 
   1     128.3610846179      1.0000000000
 D 1 
   1      71.3117136766      1.0000000000
 D 1 
   1      39.6176187092      1.0000000000
 D 1 
   1      22.0097881718      1.0000000000
 D 1 
   1      12.2276600954      1.0000000000
 D 1 
   1       6.7931444975      1.0000000000
 D 1 
   1       3.7739691653      1.0000000000
 D 1 
   1       2.0966495363      1.0000000000
 D 1 
   1       1.1648052979      1.0000000000
 D 1 
   1       0.6471140544      1.0000000000
 D 1 
   1       0.3595078080      1.0000000000
 D 1 
   1       0.1997265600      1.0000000000
 D 1 
   1       0.1109592000      1.0000000000
 D 1 
   1       0.0616440000      1.0000000000
 F 1 
   1    1089.9683674044      1.0000000000
 F 1 
   1     605.5379818913      1.0000000000
 F 1 
   1     336.4099899396      1.0000000000
 F 1 
   1     186.8944388553      1.0000000000
 F 1 
   1     103.8302438085      1.0000000000
 F 1 
   1      57.6834687825      1.0000000000
 F 1 
   1      32.0463715458      1.0000000000
 F 1 
   1      17.8035397477      1.0000000000
 F 1 
   1       9.8908554154      1.0000000000
 F 1 
   1       5.4949196752      1.0000000000
 F 1 
   1       3.0527331529      1.0000000000
 F 1 
   1       1.6959628627      1.0000000000
 F 1 
   1       0.9422015904      1.0000000000
 F 1 
   1       0.5234453280      1.0000000000
 F 1 
   1       0.2908029600      1.0000000000
 F 1 
   1       0.1615572000      1.0000000000
 F 1 
   1       0.0897540000      1.0000000000
 G 1 
   1     136.3487739404      1.0000000000
 G 1 
   1      75.7493188558      1.0000000000
 G 1 
   1      42.0829549199      1.0000000000
 G 1 
   1      23.3794193999      1.0000000000
 G 1 
   1      12.9885663333      1.0000000000
 G 1 
   1       7.2158701852      1.0000000000
 G 1 
   1       4.0088167695      1.0000000000
 G 1 
   1       2.2271204275      1.0000000000
 G 1 
   1       1.2372891264      1.0000000000
 G 1 
   1       0.6873828480      1.0000000000
 G 1 
   1       0.3818793600      1.0000000000
 G 1 
   1       0.2121552000      1.0000000000
 G 1 
   1       0.1178640000      1.0000000000
 H 1 
   1       5.8747580812      1.0000000000
 H 1 
   1       2.5542426440      1.0000000000
 H 1 
   1       1.1105402800      1.0000000000
 H 1 
   1       0.4828436000      1.0000000000
 H 1 
   1       0.2099320000      1.0000000000
  end;

---------------------------------
AUXILIARY/C BASIS SET INFORMATION
---------------------------------
There are 4 groups of distinct atoms

 Group   1 Type Cu  : 23s20p18d17f13g5h contracted to 23s20p18d17f13g5h pattern {11111111111111111111111/11111111111111111111/111111111111111111/11111111111111111/1111111111111/11111}
 Group   2 Type S   : 20s17p16d7f contracted to 20s17p16d7f pattern {11111111111111111111/11111111111111111/1111111111111111/1111111}
 Group   3 Type C   : 17s14p13d4f contracted to 17s14p13d4f pattern {11111111111111111/11111111111111/1111111111111/1111}
 Group   4 Type H   : 12s5p4d3f contracted to 12s5p4d3f pattern {111111111111/11111/1111/111}

Atom   0Cu   basis set group =>   1
Atom   1S    basis set group =>   2
Atom   2C    basis set group =>   3
Atom   3S    basis set group =>   2
Atom   4C    basis set group =>   3
Atom   5S    basis set group =>   2
Atom   6C    basis set group =>   3
Atom   7S    basis set group =>   2
Atom   8C    basis set group =>   3
Atom   9C    basis set group =>   3
Atom  10C    basis set group =>   3
Atom  11C    basis set group =>   3
Atom  12H    basis set group =>   4
Atom  13C    basis set group =>   3
Atom  14H    basis set group =>   4
Atom  15H    basis set group =>   4
Atom  16H    basis set group =>   4
Atom  17C    basis set group =>   3
Atom  18C    basis set group =>   3
Atom  19C    basis set group =>   3
Atom  20H    basis set group =>   4
Atom  21C    basis set group =>   3
Atom  22H    basis set group =>   4
Atom  23H    basis set group =>   4
Atom  24H    basis set group =>   4

-------------------------------------
AUXILIARY/C BASIS SET IN INPUT FORMAT
-------------------------------------

 # Auxiliary/C basis set for element : H 
 NewAuxCGTO H 
 S 1 
   1      35.9414656527      1.0000000000
 S 1 
   1      19.9674809182      1.0000000000
 S 1 
   1      11.0930449545      1.0000000000
 S 1 
   1       6.1628027525      1.0000000000
 S 1 
   1       3.4237793070      1.0000000000
 S 1 
   1       1.9020996150      1.0000000000
 S 1 
   1       1.0567220083      1.0000000000
 S 1 
   1       0.5870677824      1.0000000000
 S 1 
   1       0.3261487680      1.0000000000
 S 1 
   1       0.1811937600      1.0000000000
 S 1 
   1       0.1006632000      1.0000000000
 S 1 
   1       0.0559240000      1.0000000000
 P 1 
   1       2.0286240000      1.0000000000
 P 1 
   1       1.0143120000      1.0000000000
 P 1 
   1       0.5071560000      1.0000000000
 P 1 
   1       0.2535780000      1.0000000000
 P 1 
   1       0.1267890000      1.0000000000
 D 1 
   1       2.1046197920      1.0000000000
 D 1 
   1       0.9566453600      1.0000000000
 D 1 
   1       0.4348388000      1.0000000000
 D 1 
   1       0.1976540000      1.0000000000
 F 1 
   1       1.8869562800      1.0000000000
 F 1 
   1       0.8577074000      1.0000000000
 F 1 
   1       0.3898670000      1.0000000000
  end;

 # Auxiliary/C basis set for element : C 
 NewAuxCGTO C 
 S 1 
   1     556.1930524224      1.0000000000
 S 1 
   1     308.9961402347      1.0000000000
 S 1 
   1     171.6645223526      1.0000000000
 S 1 
   1      95.3691790848      1.0000000000
 S 1 
   1      52.9828772693      1.0000000000
 S 1 
   1      29.4349318163      1.0000000000
 S 1 
   1      16.3527398979      1.0000000000
 S 1 
   1       9.0848554989      1.0000000000
 S 1 
   1       5.0471419438      1.0000000000
 S 1 
   1       2.8039677466      1.0000000000
 S 1 
   1       1.5577598592      1.0000000000
 S 1 
   1       0.8654221440      1.0000000000
 S 1 
   1       0.4807900800      1.0000000000
 S 1 
   1       0.2671056000      1.0000000000
 S 1 
   1       0.1483920000      1.0000000000
 S 1 
   1       0.0824400000      1.0000000000
 S 1 
   1       0.0458000000      1.0000000000
 P 1 
   1      95.3691790848      1.0000000000
 P 1 
   1      52.9828772693      1.0000000000
 P 1 
   1      29.4349318163      1.0000000000
 P 1 
   1      16.3527398979      1.0000000000
 P 1 
   1       9.0848554989      1.0000000000
 P 1 
   1       5.0471419438      1.0000000000
 P 1 
   1       2.8039677466      1.0000000000
 P 1 
   1       1.5577598592      1.0000000000
 P 1 
   1       0.8654221440      1.0000000000
 P 1 
   1       0.4807900800      1.0000000000
 P 1 
   1       0.2671056000      1.0000000000
 P 1 
   1       0.1483920000      1.0000000000
 P 1 
   1       0.0824400000      1.0000000000
 P 1 
   1       0.0458000000      1.0000000000
 D 1 
   1      52.9828772693      1.0000000000
 D 1 
   1      29.4349318163      1.0000000000
 D 1 
   1      16.3527398979      1.0000000000
 D 1 
   1       9.0848554989      1.0000000000
 D 1 
   1       5.0471419438      1.0000000000
 D 1 
   1       2.8039677466      1.0000000000
 D 1 
   1       1.5577598592      1.0000000000
 D 1 
   1       0.8654221440      1.0000000000
 D 1 
   1       0.4807900800      1.0000000000
 D 1 
   1       0.2671056000      1.0000000000
 D 1 
   1       0.1483920000      1.0000000000
 D 1 
   1       0.0824400000      1.0000000000
 D 1 
   1       0.0458000000      1.0000000000
 F 1 
   1       1.1112572240      1.0000000000
 F 1 
   1       0.5051169200      1.0000000000
 F 1 
   1       0.2295986000      1.0000000000
 F 1 
   1       0.1043630000      1.0000000000
  end;

 # Auxiliary/C basis set for element : S 
 NewAuxCGTO S 
 S 1 
   1    4900.5494839448      1.0000000000
 S 1 
   1    2722.5274910805      1.0000000000
 S 1 
   1    1512.5152728225      1.0000000000
 S 1 
   1     840.2862626792      1.0000000000
 S 1 
   1     466.8257014884      1.0000000000
 S 1 
   1     259.3476119380      1.0000000000
 S 1 
   1     144.0820066322      1.0000000000
 S 1 
   1      80.0455592401      1.0000000000
 S 1 
   1      44.4697551334      1.0000000000
 S 1 
   1      24.7054195186      1.0000000000
 S 1 
   1      13.7252330659      1.0000000000
 S 1 
   1       7.6251294810      1.0000000000
 S 1 
   1       4.2361830450      1.0000000000
 S 1 
   1       2.3534350250      1.0000000000
 S 1 
   1       1.3074639028      1.0000000000
 S 1 
   1       0.7263688349      1.0000000000
 S 1 
   1       0.4035382416      1.0000000000
 S 1 
   1       0.2241879120      1.0000000000
 S 1 
   1       0.1245488400      1.0000000000
 S 1 
   1       0.0691938000      1.0000000000
 P 1 
   1     840.2862626792      1.0000000000
 P 1 
   1     466.8257014884      1.0000000000
 P 1 
   1     259.3476119380      1.0000000000
 P 1 
   1     144.0820066322      1.0000000000
 P 1 
   1      80.0455592401      1.0000000000
 P 1 
   1      44.4697551334      1.0000000000
 P 1 
   1      24.7054195186      1.0000000000
 P 1 
   1      13.7252330659      1.0000000000
 P 1 
   1       7.6251294810      1.0000000000
 P 1 
   1       4.2361830450      1.0000000000
 P 1 
   1       2.3534350250      1.0000000000
 P 1 
   1       1.3074639028      1.0000000000
 P 1 
   1       0.7263688349      1.0000000000
 P 1 
   1       0.4035382416      1.0000000000
 P 1 
   1       0.2241879120      1.0000000000
 P 1 
   1       0.1245488400      1.0000000000
 P 1 
   1       0.0691938000      1.0000000000
 D 1 
   1     466.8257014884      1.0000000000
 D 1 
   1     259.3476119380      1.0000000000
 D 1 
   1     144.0820066322      1.0000000000
 D 1 
   1      80.0455592401      1.0000000000
 D 1 
   1      44.4697551334      1.0000000000
 D 1 
   1      24.7054195186      1.0000000000
 D 1 
   1      13.7252330659      1.0000000000
 D 1 
   1       7.6251294810      1.0000000000
 D 1 
   1       4.2361830450      1.0000000000
 D 1 
   1       2.3534350250      1.0000000000
 D 1 
   1       1.3074639028      1.0000000000
 D 1 
   1       0.7263688349      1.0000000000
 D 1 
   1       0.4035382416      1.0000000000
 D 1 
   1       0.2241879120      1.0000000000
 D 1 
   1       0.1245488400      1.0000000000
 D 1 
   1       0.0691938000      1.0000000000
 F 1 
   1      12.9797314099      1.0000000000
 F 1 
   1       5.8998779136      1.0000000000
 F 1 
   1       2.6817626880      1.0000000000
 F 1 
   1       1.2189830400      1.0000000000
 F 1 
   1       0.5540832000      1.0000000000
 F 1 
   1       0.2518560000      1.0000000000
 F 1 
   1       0.1144800000      1.0000000000
  end;

 # Auxiliary/C basis set for element : Cu
 NewAuxCGTO Cu
 S 1 
   1   12815.8936556437      1.0000000000
 S 1 
   1    7119.9409198021      1.0000000000
 S 1 
   1    3955.5227332234      1.0000000000
 S 1 
   1    2197.5126295685      1.0000000000
 S 1 
   1    1220.8403497603      1.0000000000
 S 1 
   1     678.2446387557      1.0000000000
 S 1 
   1     376.8025770865      1.0000000000
 S 1 
   1     209.3347650481      1.0000000000
 S 1 
   1     116.2970916934      1.0000000000
 S 1 
   1      64.6094953852      1.0000000000
 S 1 
   1      35.8941641029      1.0000000000
 S 1 
   1      19.9412022794      1.0000000000
 S 1 
   1      11.0784457108      1.0000000000
 S 1 
   1       6.1546920615      1.0000000000
 S 1 
   1       3.4192733675      1.0000000000
 S 1 
   1       1.8995963153      1.0000000000
 S 1 
   1       1.0553312863      1.0000000000
 S 1 
   1       0.5862951590      1.0000000000
 S 1 
   1       0.3257195328      1.0000000000
 S 1 
   1       0.1809552960      1.0000000000
 S 1 
   1       0.1005307200      1.0000000000
 S 1 
   1       0.0558504000      1.0000000000
 S 1 
   1       0.0310280000      1.0000000000
 P 1 
   1    3281.6792962385      1.0000000000
 P 1 
   1    1823.1551645769      1.0000000000
 P 1 
   1    1012.8639803205      1.0000000000
 P 1 
   1     562.7022112892      1.0000000000
 P 1 
   1     312.6123396051      1.0000000000
 P 1 
   1     173.6735220028      1.0000000000
 P 1 
   1      96.4852900016      1.0000000000
 P 1 
   1      53.6029388898      1.0000000000
 P 1 
   1      29.7794104943      1.0000000000
 P 1 
   1      16.5441169413      1.0000000000
 P 1 
   1       9.1911760785      1.0000000000
 P 1 
   1       5.1062089325      1.0000000000
 P 1 
   1       2.8367827403      1.0000000000
 P 1 
   1       1.5759904113      1.0000000000
 P 1 
   1       0.8755502285      1.0000000000
 P 1 
   1       0.4864167936      1.0000000000
 P 1 
   1       0.2702315520      1.0000000000
 P 1 
   1       0.1501286400      1.0000000000
 P 1 
   1       0.0834048000      1.0000000000
 P 1 
   1       0.0463360000      1.0000000000
 D 1 
   1    1347.4833218853      1.0000000000
 D 1 
   1     748.6018454918      1.0000000000
 D 1 
   1     415.8899141621      1.0000000000
 D 1 
   1     231.0499523123      1.0000000000
 D 1 
   1     128.3610846179      1.0000000000
 D 1 
   1      71.3117136766      1.0000000000
 D 1 
   1      39.6176187092      1.0000000000
 D 1 
   1      22.0097881718      1.0000000000
 D 1 
   1      12.2276600954      1.0000000000
 D 1 
   1       6.7931444975      1.0000000000
 D 1 
   1       3.7739691653      1.0000000000
 D 1 
   1       2.0966495363      1.0000000000
 D 1 
   1       1.1648052979      1.0000000000
 D 1 
   1       0.6471140544      1.0000000000
 D 1 
   1       0.3595078080      1.0000000000
 D 1 
   1       0.1997265600      1.0000000000
 D 1 
   1       0.1109592000      1.0000000000
 D 1 
   1       0.0616440000      1.0000000000
 F 1 
   1    1089.9683674044      1.0000000000
 F 1 
   1     605.5379818913      1.0000000000
 F 1 
   1     336.4099899396      1.0000000000
 F 1 
   1     186.8944388553      1.0000000000
 F 1 
   1     103.8302438085      1.0000000000
 F 1 
   1      57.6834687825      1.0000000000
 F 1 
   1      32.0463715458      1.0000000000
 F 1 
   1      17.8035397477      1.0000000000
 F 1 
   1       9.8908554154      1.0000000000
 F 1 
   1       5.4949196752      1.0000000000
 F 1 
   1       3.0527331529      1.0000000000
 F 1 
   1       1.6959628627      1.0000000000
 F 1 
   1       0.9422015904      1.0000000000
 F 1 
   1       0.5234453280      1.0000000000
 F 1 
   1       0.2908029600      1.0000000000
 F 1 
   1       0.1615572000      1.0000000000
 F 1 
   1       0.0897540000      1.0000000000
 G 1 
   1     136.3487739404      1.0000000000
 G 1 
   1      75.7493188558      1.0000000000
 G 1 
   1      42.0829549199      1.0000000000
 G 1 
   1      23.3794193999      1.0000000000
 G 1 
   1      12.9885663333      1.0000000000
 G 1 
   1       7.2158701852      1.0000000000
 G 1 
   1       4.0088167695      1.0000000000
 G 1 
   1       2.2271204275      1.0000000000
 G 1 
   1       1.2372891264      1.0000000000
 G 1 
   1       0.6873828480      1.0000000000
 G 1 
   1       0.3818793600      1.0000000000
 G 1 
   1       0.2121552000      1.0000000000
 G 1 
   1       0.1178640000      1.0000000000
 H 1 
   1       5.8747580812      1.0000000000
 H 1 
   1       2.5542426440      1.0000000000
 H 1 
   1       1.1105402800      1.0000000000
 H 1 
   1       0.4828436000      1.0000000000
 H 1 
   1       0.2099320000      1.0000000000
  end;

----------------------------------
AUXILIARY/JK BASIS SET INFORMATION
----------------------------------
There are 4 groups of distinct atoms

 Group   1 Type Cu  : 23s20p18d17f13g5h contracted to 23s20p18d17f13g5h pattern {11111111111111111111111/11111111111111111111/111111111111111111/11111111111111111/1111111111111/11111}
 Group   2 Type S   : 20s17p16d7f contracted to 20s17p16d7f pattern {11111111111111111111/11111111111111111/1111111111111111/1111111}
 Group   3 Type C   : 17s14p13d4f contracted to 17s14p13d4f pattern {11111111111111111/11111111111111/1111111111111/1111}
 Group   4 Type H   : 12s5p4d3f contracted to 12s5p4d3f pattern {111111111111/11111/1111/111}

Atom   0Cu   basis set group =>   1
Atom   1S    basis set group =>   2
Atom   2C    basis set group =>   3
Atom   3S    basis set group =>   2
Atom   4C    basis set group =>   3
Atom   5S    basis set group =>   2
Atom   6C    basis set group =>   3
Atom   7S    basis set group =>   2
Atom   8C    basis set group =>   3
Atom   9C    basis set group =>   3
Atom  10C    basis set group =>   3
Atom  11C    basis set group =>   3
Atom  12H    basis set group =>   4
Atom  13C    basis set group =>   3
Atom  14H    basis set group =>   4
Atom  15H    basis set group =>   4
Atom  16H    basis set group =>   4
Atom  17C    basis set group =>   3
Atom  18C    basis set group =>   3
Atom  19C    basis set group =>   3
Atom  20H    basis set group =>   4
Atom  21C    basis set group =>   3
Atom  22H    basis set group =>   4
Atom  23H    basis set group =>   4
Atom  24H    basis set group =>   4

--------------------------------------
AUXILIARY/JK BASIS SET IN INPUT FORMAT
--------------------------------------

 # Auxiliary/JK basis set for element : H 
 NewAuxJKGTO H 
 S 1 
   1      35.9414656527      1.0000000000
 S 1 
   1      19.9674809182      1.0000000000
 S 1 
   1      11.0930449545      1.0000000000
 S 1 
   1       6.1628027525      1.0000000000
 S 1 
   1       3.4237793070      1.0000000000
 S 1 
   1       1.9020996150      1.0000000000
 S 1 
   1       1.0567220083      1.0000000000
 S 1 
   1       0.5870677824      1.0000000000
 S 1 
   1       0.3261487680      1.0000000000
 S 1 
   1       0.1811937600      1.0000000000
 S 1 
   1       0.1006632000      1.0000000000
 S 1 
   1       0.0559240000      1.0000000000
 P 1 
   1       2.0286240000      1.0000000000
 P 1 
   1       1.0143120000      1.0000000000
 P 1 
   1       0.5071560000      1.0000000000
 P 1 
   1       0.2535780000      1.0000000000
 P 1 
   1       0.1267890000      1.0000000000
 D 1 
   1       2.1046197920      1.0000000000
 D 1 
   1       0.9566453600      1.0000000000
 D 1 
   1       0.4348388000      1.0000000000
 D 1 
   1       0.1976540000      1.0000000000
 F 1 
   1       1.8869562800      1.0000000000
 F 1 
   1       0.8577074000      1.0000000000
 F 1 
   1       0.3898670000      1.0000000000
  end;

 # Auxiliary/JK basis set for element : C 
 NewAuxJKGTO C 
 S 1 
   1     556.1930524224      1.0000000000
 S 1 
   1     308.9961402347      1.0000000000
 S 1 
   1     171.6645223526      1.0000000000
 S 1 
   1      95.3691790848      1.0000000000
 S 1 
   1      52.9828772693      1.0000000000
 S 1 
   1      29.4349318163      1.0000000000
 S 1 
   1      16.3527398979      1.0000000000
 S 1 
   1       9.0848554989      1.0000000000
 S 1 
   1       5.0471419438      1.0000000000
 S 1 
   1       2.8039677466      1.0000000000
 S 1 
   1       1.5577598592      1.0000000000
 S 1 
   1       0.8654221440      1.0000000000
 S 1 
   1       0.4807900800      1.0000000000
 S 1 
   1       0.2671056000      1.0000000000
 S 1 
   1       0.1483920000      1.0000000000
 S 1 
   1       0.0824400000      1.0000000000
 S 1 
   1       0.0458000000      1.0000000000
 P 1 
   1      95.3691790848      1.0000000000
 P 1 
   1      52.9828772693      1.0000000000
 P 1 
   1      29.4349318163      1.0000000000
 P 1 
   1      16.3527398979      1.0000000000
 P 1 
   1       9.0848554989      1.0000000000
 P 1 
   1       5.0471419438      1.0000000000
 P 1 
   1       2.8039677466      1.0000000000
 P 1 
   1       1.5577598592      1.0000000000
 P 1 
   1       0.8654221440      1.0000000000
 P 1 
   1       0.4807900800      1.0000000000
 P 1 
   1       0.2671056000      1.0000000000
 P 1 
   1       0.1483920000      1.0000000000
 P 1 
   1       0.0824400000      1.0000000000
 P 1 
   1       0.0458000000      1.0000000000
 D 1 
   1      52.9828772693      1.0000000000
 D 1 
   1      29.4349318163      1.0000000000
 D 1 
   1      16.3527398979      1.0000000000
 D 1 
   1       9.0848554989      1.0000000000
 D 1 
   1       5.0471419438      1.0000000000
 D 1 
   1       2.8039677466      1.0000000000
 D 1 
   1       1.5577598592      1.0000000000
 D 1 
   1       0.8654221440      1.0000000000
 D 1 
   1       0.4807900800      1.0000000000
 D 1 
   1       0.2671056000      1.0000000000
 D 1 
   1       0.1483920000      1.0000000000
 D 1 
   1       0.0824400000      1.0000000000
 D 1 
   1       0.0458000000      1.0000000000
 F 1 
   1       1.1112572240      1.0000000000
[...]
  X       0.2110973    0.9069547   -0.3645150
  Y       0.4629762   -0.4212080   -0.7798954
  Z      -0.8608664   -0.0041280   -0.5088143

Note: Tensor is right-handed


 Quadrupole tensor eigenvalues (in MHz;Q= 0.0029 I=  1.0)
  e**2qQ            =     0.210811 MHz 
  e**2qQ/(4I*(2I-1))=     0.052703 MHz 
  eta               =     0.093895
  NOTE: the diagonal representation of the SH term I*Q*I = e**2qQ/(4I(2I-1))*[-(1-eta),-(1+eta),2]

 RHO(0)=      0.476001928 a.u.**-3

 -----------------------------------------------------------
 Nucleus  16H : A:ISTP=    1 I=  0.5 P=533.5514 MHz/au**3
                Q:ISTP=    2 I=  1.0 Q=  0.0029 barn     
 -----------------------------------------------------------
 Solving for nuclear perturbation:
Forming RHS of the CP-SCF equations         ... 
Calc. nucleus orbit integrals (SHARK)       ... done

Forming final perturbed densities           ... done
Transforming perturbed density to AO basis  ... done

 Raw HFC matrix (all values in MHz): 
 -----------------------------------
                 0.6085               0.3582              -0.0448
                 0.3591               1.3526              -0.1045
                -0.0453              -0.0975               0.6519

 A(FC)           0.8704               0.8704               0.8704
 A(SD)          -0.3974              -0.2319               0.6293
 A(ORB+DIA)     -0.0093              -0.0008               0.0118    A(PC) =   0.0006
 A(ORB)         -0.0093              -0.0006               0.0117    A(PC) =   0.0006
 A(DIA)         -0.0001              -0.0001               0.0002    A(PC) =  -0.0000
             ----------           ----------           ----------
 A(Tot)          0.4637               0.6378               1.5115    A(iso)=    0.8710
 Orientation: 
  X           0.9279342            0.0359957           -0.3710019
  Y          -0.3724834            0.1267645           -0.9193405
  Z           0.0139376            0.9912795            0.1310369

Notes:  (1) The A matrix conforms to the "SAI" spin Hamiltonian convention.
        (2) Tensor is right-handed.

 Raw EFG matrix (all values in a.u.**-3):
 -----------------------------------
            -0.1059       0.1409      -0.0847
             0.1409       0.1300      -0.1810
            -0.0847      -0.1810      -0.0241

 V(El)       0.6063       0.8334      -1.4397
 V(Nuc)     -0.7486      -1.0051       1.7537
         ----------   ----------   ----------
 V(Tot)     -0.1422      -0.1717       0.3139 
 Orientation: 
  X       0.2110973    0.9069547    0.3645150
  Y       0.4629762   -0.4212080    0.7798954
  Z       0.8608664    0.0041280   -0.5088143

Note: Tensor is right-handed


 Quadrupole tensor eigenvalues (in MHz;Q= 0.0029 I=  1.0)
  e**2qQ            =     0.210811 MHz 
  e**2qQ/(4I*(2I-1))=     0.052703 MHz 
  eta               =     0.093895
  NOTE: the diagonal representation of the SH term I*Q*I = e**2qQ/(4I(2I-1))*[-(1-eta),-(1+eta),2]

 RHO(0)=      0.476001928 a.u.**-3

 -----------------------------------------------------------
 Nucleus  20H : A:ISTP=    1 I=  0.5 P=533.5514 MHz/au**3
                Q:ISTP=    2 I=  1.0 Q=  0.0029 barn     
 -----------------------------------------------------------
 Solving for nuclear perturbation:
Forming RHS of the CP-SCF equations         ... 
Calc. nucleus orbit integrals (SHARK)       ... done

Forming final perturbed densities           ... done
Transforming perturbed density to AO basis  ... done

 Raw HFC matrix (all values in MHz): 
 -----------------------------------
                 0.3126               1.1380              -0.4310
                 1.1279               2.3491              -0.8101
                -0.4286              -0.8084               0.7558

 A(FC)           1.1464               1.1464               1.1464
 A(SD)          -1.3266              -0.7190               2.0457
 A(ORB+DIA)     -0.0180              -0.0082               0.0046    A(PC) =  -0.0072
 A(ORB)         -0.0177              -0.0078               0.0042    A(PC) =  -0.0071
 A(DIA)         -0.0003              -0.0004               0.0004    A(PC) =  -0.0001
             ----------           ----------           ----------
 A(Tot)         -0.1983               0.4191               3.1966    A(iso)=    1.1392
 Orientation: 
  X           0.9201638            0.0512590           -0.3881638
  Y          -0.3795546            0.3601362           -0.8521973
  Z           0.0961091            0.9314904            0.3508399

Notes:  (1) The A matrix conforms to the "SAI" spin Hamiltonian convention.
        (2) Tensor is right-handed.

 Raw EFG matrix (all values in a.u.**-3):
 -----------------------------------
            -0.1659       0.0094      -0.0027
             0.0094      -0.1497       0.0001
            -0.0027       0.0001       0.3156

 V(El)       0.3273       0.9596      -1.2870
 V(Nuc)     -0.4727      -1.1298       1.6025
         ----------   ----------   ----------
 V(Tot)     -0.1454      -0.1702       0.3156 
 Orientation: 
  X      -0.4164561    0.9091380   -0.0056868
  Y      -0.9091529   -0.4164626    0.0000625
  Z      -0.0023115    0.0051962    0.9999838

Note: Tensor is right-handed


 Quadrupole tensor eigenvalues (in MHz;Q= 0.0029 I=  1.0)
  e**2qQ            =     0.211900 MHz 
  e**2qQ/(4I*(2I-1))=     0.052975 MHz 
  eta               =     0.078611
  NOTE: the diagonal representation of the SH term I*Q*I = e**2qQ/(4I(2I-1))*[-(1-eta),-(1+eta),2]

 RHO(0)=      0.477201928 a.u.**-3

 -----------------------------------------------------------
 Nucleus  22H : A:ISTP=    1 I=  0.5 P=533.5514 MHz/au**3
                Q:ISTP=    2 I=  1.0 Q=  0.0029 barn     
 -----------------------------------------------------------
 Solving for nuclear perturbation:
Forming RHS of the CP-SCF equations         ... 
Calc. nucleus orbit integrals (SHARK)       ... done

Forming final perturbed densities           ... done
Transforming perturbed density to AO basis  ... done

 Raw HFC matrix (all values in MHz): 
 -----------------------------------
                 0.3133               1.1374               0.4314
                 1.1286               2.3494               0.8109
                 0.4289               0.8078               0.7555

 A(FC)           1.1464               1.1464               1.1464
 A(SD)          -1.3266              -0.7190               2.0457
 A(ORB+DIA)     -0.0175              -0.0086               0.0051    A(PC) =  -0.0070
 A(ORB)         -0.0172              -0.0081               0.0048    A(PC) =  -0.0068
 A(DIA)         -0.0003              -0.0004               0.0004    A(PC) =  -0.0001
             ----------           ----------           ----------
 A(Tot)         -0.1977               0.4188               3.1972    A(iso)=    1.1394
 Orientation: 
  X           0.9202575            0.0503016            0.3880670
  Y          -0.3790677            0.3607448            0.8521566
  Z          -0.0971283           -0.9313071            0.3510458

Notes:  (1) The A matrix conforms to the "SAI" spin Hamiltonian convention.
        (2) Tensor is right-handed.

 Raw EFG matrix (all values in a.u.**-3):
 -----------------------------------
            -0.1659       0.0094       0.0027
             0.0094      -0.1497      -0.0001
             0.0027      -0.0001       0.3156

 V(El)       0.3273       0.9596      -1.2870
 V(Nuc)     -0.4727      -1.1298       1.6025
         ----------   ----------   ----------
 V(Tot)     -0.1454      -0.1702       0.3156 
 Orientation: 
  X      -0.4164561    0.9091380    0.0056868
  Y      -0.9091529   -0.4164626   -0.0000625
  Z       0.0023115   -0.0051962    0.9999838

Note: Tensor is right-handed


 Quadrupole tensor eigenvalues (in MHz;Q= 0.0029 I=  1.0)
  e**2qQ            =     0.211900 MHz 
  e**2qQ/(4I*(2I-1))=     0.052975 MHz 
  eta               =     0.078611
  NOTE: the diagonal representation of the SH term I*Q*I = e**2qQ/(4I(2I-1))*[-(1-eta),-(1+eta),2]

 RHO(0)=      0.477201928 a.u.**-3

 -----------------------------------------------------------
 Nucleus  23H : A:ISTP=    1 I=  0.5 P=533.5514 MHz/au**3
                Q:ISTP=    2 I=  1.0 Q=  0.0029 barn     
 -----------------------------------------------------------
 Solving for nuclear perturbation:
Forming RHS of the CP-SCF equations         ... 
Calc. nucleus orbit integrals (SHARK)       ... done

Forming final perturbed densities           ... done
Transforming perturbed density to AO basis  ... done

 Raw HFC matrix (all values in MHz): 
 -----------------------------------
                 0.6085               0.3582              -0.0447
                 0.3591               1.3526              -0.1045
                -0.0453              -0.0975               0.6519

 A(FC)           0.8704               0.8704               0.8704
 A(SD)          -0.3974              -0.2319               0.6293
 A(ORB+DIA)     -0.0093              -0.0007               0.0118    A(PC) =   0.0006
 A(ORB)         -0.0093              -0.0006               0.0117    A(PC) =   0.0006
 A(DIA)         -0.0001              -0.0001               0.0002    A(PC) =  -0.0000
             ----------           ----------           ----------
 A(Tot)          0.4637               0.6378               1.5115    A(iso)=    0.8710
 Orientation: 
  X           0.9279347            0.0361535           -0.3709852
  Y          -0.3724884            0.1266990           -0.9193474
  Z           0.0137658            0.9912821            0.1310352

Notes:  (1) The A matrix conforms to the "SAI" spin Hamiltonian convention.
        (2) Tensor is right-handed.

 Raw EFG matrix (all values in a.u.**-3):
 -----------------------------------
            -0.1059       0.1409      -0.0847
             0.1409       0.1300      -0.1810
            -0.0847      -0.1810      -0.0241

 V(El)       0.6063       0.8334      -1.4397
 V(Nuc)     -0.7486      -1.0051       1.7537
         ----------   ----------   ----------
 V(Tot)     -0.1422      -0.1717       0.3139 
 Orientation: 
  X       0.2110973    0.9069547    0.3645150
  Y       0.4629762   -0.4212080    0.7798954
  Z       0.8608664    0.0041280   -0.5088143

Note: Tensor is right-handed


 Quadrupole tensor eigenvalues (in MHz;Q= 0.0029 I=  1.0)
  e**2qQ            =     0.210811 MHz 
  e**2qQ/(4I*(2I-1))=     0.052703 MHz 
  eta               =     0.093895
  NOTE: the diagonal representation of the SH term I*Q*I = e**2qQ/(4I(2I-1))*[-(1-eta),-(1+eta),2]

 RHO(0)=      0.476001928 a.u.**-3

 -----------------------------------------------------------
 Nucleus  24H : A:ISTP=    1 I=  0.5 P=533.5514 MHz/au**3
                Q:ISTP=    2 I=  1.0 Q=  0.0029 barn     
 -----------------------------------------------------------
 Solving for nuclear perturbation:
Forming RHS of the CP-SCF equations         ... 
Calc. nucleus orbit integrals (SHARK)       ... done

Forming final perturbed densities           ... done
Transforming perturbed density to AO basis  ... done

 Raw HFC matrix (all values in MHz): 
 -----------------------------------
                 0.6087               0.3581               0.0450
                 0.3594               1.3526               0.1046
                 0.0450               0.0972               0.6517

 A(FC)           0.8704               0.8704               0.8704
 A(SD)          -0.3974              -0.2319               0.6293
 A(ORB+DIA)     -0.0092              -0.0010               0.0118    A(PC) =   0.0006
 A(ORB)         -0.0091              -0.0008               0.0117    A(PC) =   0.0006
 A(DIA)         -0.0001              -0.0001               0.0002    A(PC) =  -0.0000
             ----------           ----------           ----------
 A(Tot)          0.4638               0.6376               1.5116    A(iso)=    0.8710
 Orientation: 
  X           0.9279689            0.0351265            0.3709984
  Y          -0.3723581            0.1273043            0.9193166
  Z          -0.0149374           -0.9912415            0.1312141

Notes:  (1) The A matrix conforms to the "SAI" spin Hamiltonian convention.
        (2) Tensor is right-handed.

 Raw EFG matrix (all values in a.u.**-3):
 -----------------------------------
            -0.1059       0.1409       0.0847
             0.1409       0.1300       0.1810
             0.0847       0.1810      -0.0241

 V(El)       0.6063       0.8334      -1.4397
 V(Nuc)     -0.7486      -1.0051       1.7537
         ----------   ----------   ----------
 V(Tot)     -0.1422      -0.1717       0.3139 
 Orientation: 
  X       0.2110973    0.9069547   -0.3645150
  Y       0.4629762   -0.4212080   -0.7798954
  Z      -0.8608664   -0.0041280   -0.5088143

Note: Tensor is right-handed


 Quadrupole tensor eigenvalues (in MHz;Q= 0.0029 I=  1.0)
  e**2qQ            =     0.210811 MHz 
  e**2qQ/(4I*(2I-1))=     0.052703 MHz 
  eta               =     0.093895
  NOTE: the diagonal representation of the SH term I*Q*I = e**2qQ/(4I(2I-1))*[-(1-eta),-(1+eta),2]

 RHO(0)=      0.476001928 a.u.**-3

 -----------------------------------------------------------
 Nucleus   0Cu: A:ISTP=   63 I=  1.5 P=141.6005 MHz/au**3
                Q:ISTP=   63 I=  1.5 Q= -0.2200 barn     
 -----------------------------------------------------------
 Solving for nuclear perturbation:
Forming RHS of the CP-SCF equations         ... 
Calc. nucleus orbit integrals (SHARK)       ... done

Forming final perturbed densities           ... done
Transforming perturbed density to AO basis  ... done

 Raw HFC matrix (all values in MHz): 
 -----------------------------------
              -214.6936              91.1390               0.0896
                87.8533             162.9653               1.8274
                -0.5924              -1.2050             186.8051

 A(FC)          -2.9066              -2.9066              -2.9066
 A(SD)         162.6610             162.7640            -325.4251
 A(ORB+DIA)     23.6779              26.6107              93.5080    A(PC) =  47.9322
 A(ORB)         23.6778              26.6112              93.5093    A(PC) =  47.9328
 A(DIA)          0.0000              -0.0004              -0.0013    A(PC) =  -0.0006
             ----------           ----------           ----------
 A(Tot)        183.4323             186.4682            -234.8237    A(iso)=   45.0256
 Orientation: 
  X           0.2073654            0.0817793            0.9748393
  Y           0.9055859            0.3608692           -0.2229073
  Z          -0.3700187            0.9290240            0.0007736

Notes:  (1) The A matrix conforms to the "SAI" spin Hamiltonian convention.
        (2) Tensor is right-handed.

 Raw EFG matrix (all values in a.u.**-3):
 -----------------------------------
            -1.7324       0.5851       0.0000
             0.5851       0.5676       0.0000
             0.0000       0.0000       1.1648

 V(El)      -0.0099       0.9648      -0.9549
 V(Nuc)      0.7178       0.2000      -0.9178
         ----------   ----------   ----------
 V(Tot)      0.7079       1.1648      -1.8727 
 Orientation: 
  X       0.2331476    0.0000000    0.9724414
  Y       0.9724414    0.0000000   -0.2331476
  Z      -0.0000000    1.0000000   -0.0000000

Note: Tensor is right-handed


 Quadrupole tensor eigenvalues (in MHz;Q=-0.2200 I=  1.5)
  e**2qQ            =    96.801977 MHz 
  e**2qQ/(4I*(2I-1))=     8.066831 MHz 
  eta               =     0.243963
  NOTE: the diagonal representation of the SH term I*Q*I = e**2qQ/(4I(2I-1))*[-(1-eta),-(1+eta),2]

 RHO(0)=  37602.226309084 a.u.**-3


--------------------------------------------------------------------------------
----------------------------------------------------------------------------
                           ORCA EULER ANGLE PROGRAM
----------------------------------------------------------------------------

Only g-tensor available        -->  using g-tensor as reference tensor

Reference tensor               ...  g

g-tensor ordering              ...  |g_min> --> |gx>
                                    |g_mid> --> |gy>
                                    |g_max> --> |gz>

A- and EFG-tensor ordering     ...  the axes |Ax>, |Qx>, |Ay>, etc. are assigned
                                    such that the Euler rotation is minimal. You
                                    can find the respective eigenvalues as Ax,
                                    EFGx, Ay, etc. in the tables below.
                                    The relation of |Ax>, |Ay>,  etc. to Amin, Amid, etc.
                                    (as printed in the ORCA EPR/NMR CALCULATION Output)
                                    is obtained in the detailed printout.

Euler rotation around          ...  z - y - z
   First rotation              -->  by alpha around z
   Second rotation             -->  by beta around y'
   Third rotation              -->  by gamma around z''
   Positive / Negative angle   -->  clockwise / counterclockwise rotation

Plot EFG-tensors                    (-)
Plot HFC-tensors                    (-)
Detailed Printout                   (-)

-------------------------------------------------------------------------
          Euler rotation of hyperfine tensor to g-tensor
-------------------------------------------------------------------------

-------------------------------------------------------------------
 Atom  |   Alpha    Beta    Gamma   |   Ax       Ay       Az 
       |          [degrees]         |           [MHz]         
-------------------------------------------------------------------
 12H     -107.1      8.5    124.5       0.42     3.20    -0.20
 14H      -69.6      8.9     45.1       0.42     3.20    -0.20
 15H      -86.8      6.2     90.9       0.64     1.51     0.46
 16H      -86.8      6.3     75.7       0.64     1.51     0.46
 20H      -69.6      8.9     45.0       0.42     3.20    -0.20
 22H     -107.0      8.5    124.5       0.42     3.20    -0.20
 23H      -86.9      6.3     75.8       0.64     1.51     0.46
 24H      -86.9      6.2     90.9       0.64     1.51     0.46
  0Cu      59.9      2.9    -85.2     186.47   183.43  -234.82
-------------------------------------------------------------------


-------------------------------------------------------------------------------
    Euler rotation of Electric Field Gradient (EFG) tensor to g-tensor
-------------------------------------------------------------------------------

-------------------------------------------------------------------
 Atom  |   Alpha    Beta    Gamma  |   EFGx     EFGy     EFGz
       |          [degrees]        |         [a.u.**-3]       
-------------------------------------------------------------------
 12H      -89.6      8.9     86.0      0.32    -0.15    -0.17
 14H      -85.6      8.9     82.1      0.32    -0.15    -0.17
 15H      -58.5      9.2     85.6     -0.14     0.31    -0.17
 16H     -116.8      9.2     82.7     -0.14     0.31    -0.17
 20H      -85.6      8.9     82.1      0.32    -0.15    -0.17
 22H      -89.6      8.9     86.0      0.32    -0.15    -0.17
 23H     -116.8      9.2     82.7     -0.14     0.31    -0.17
 24H      -58.5      9.2     85.6     -0.14     0.31    -0.17
  0Cu      80.5      2.3    -84.0      1.16     0.71    -1.87
-------------------------------------------------------------------


Maximum memory used throughout the entire EPRNMR-calculation: 587.3 MB

Timings for individual modules:

Sum of individual times         ...    20762.258 sec (= 346.038 min)
GTO integral calculation        ...       17.875 sec (=   0.298 min)   0.1 %
Spin-Orbit-Coupling Matrices    ...      240.394 sec (=   4.007 min)   1.2 %
SCF iterations                  ...      700.605 sec (=  11.677 min)   3.4 %
EPR/NMR calculation             ...    19803.385 sec (= 330.056 min)  95.4 %
                             ****ORCA TERMINATED NORMALLY****
TOTAL RUN TIME: 0 days 5 hours 47 minutes 42 seconds 215 msec
