
                                 *****************
                                 * O   R   C   A *
                                 *****************

                                            #,                                       
                                            ###                                      
                                            ####                                     
                                            #####                                    
                                            ######                                   
                                           ########,                                 
                                     ,,################,,,,,                         
                               ,,#################################,,                 
                          ,,##########################################,,             
                       ,#########################################, ''#####,          
                    ,#############################################,,   '####,        
                  ,##################################################,,,,####,       
                ,###########''''           ''''###############################       
              ,#####''   ,,,,##########,,,,          '''####'''          '####       
            ,##' ,,,,###########################,,,                        '##       
           ' ,,###''''                  '''############,,,                           
         ,,##''                                '''############,,,,        ,,,,,,###''
      ,#''                                            '''#######################'''  
     '                                                          ''''####''''         
             ,#######,   #######,   ,#######,      ##                                
            ,#'     '#,  ##    ##  ,#'     '#,    #''#        ######   ,####,        
            ##       ##  ##   ,#'  ##            #'  '#       #        #'  '#        
            ##       ##  #######   ##           ,######,      #####,   #    #        
            '#,     ,#'  ##    ##  '#,     ,#' ,#      #,         ##   #,  ,#        
             '#######'   ##     ##  '#######'  #'      '#     #####' # '####'        



                  #######################################################
                  #                        -***-                        #
                  #          Department of theory and spectroscopy      #
                  #    Directorship and core code : Frank Neese         #
                  #        Max Planck Institute fuer Kohlenforschung    #
                  #                Kaiser Wilhelm Platz 1               #
                  #                 D-45470 Muelheim/Ruhr               #
                  #                      Germany                        #
                  #                                                     #
                  #                  All rights reserved                #
                  #                        -***-                        #
                  #######################################################


                         Program Version 5.0.4 -  RELEASE  -


 With contributions from (in alphabetic order):
   Daniel Aravena         : Magnetic Suceptibility
   Michael Atanasov       : Ab Initio Ligand Field Theory (pilot matlab implementation)
   Alexander A. Auer      : GIAO ZORA, VPT2 properties, NMR spectrum
   Ute Becker             : Parallelization
   Giovanni Bistoni       : ED, misc. LED, open-shell LED, HFLD
   Martin Brehm           : Molecular dynamics
   Dmytro Bykov           : SCF Hessian
   Vijay G. Chilkuri      : MRCI spin determinant printing, contributions to CSF-ICE
   Dipayan Datta          : RHF DLPNO-CCSD density
   Achintya Kumar Dutta   : EOM-CC, STEOM-CC
   Dmitry Ganyushin       : Spin-Orbit,Spin-Spin,Magnetic field MRCI
   Miquel Garcia          : C-PCM and meta-GGA Hessian, CC/C-PCM, Gaussian charge scheme
   Yang Guo               : DLPNO-NEVPT2, F12-NEVPT2, CIM, IAO-localization
   Andreas Hansen         : Spin unrestricted coupled pair/coupled cluster methods
   Benjamin Helmich-Paris : MC-RPA, TRAH-SCF, COSX integrals
   Lee Huntington         : MR-EOM, pCC
   Robert Izsak           : Overlap fitted RIJCOSX, COSX-SCS-MP3, EOM
   Marcus Kettner         : VPT2
   Christian Kollmar      : KDIIS, OOCD, Brueckner-CCSD(T), CCSD density, CASPT2, CASPT2-K
   Simone Kossmann        : Meta GGA functionals, TD-DFT gradient, OOMP2, MP2 Hessian
   Martin Krupicka        : Initial AUTO-CI
   Lucas Lang             : DCDCAS
   Marvin Lechner         : AUTO-CI (C++ implementation), FIC-MRCC
   Dagmar Lenk            : GEPOL surface, SMD
   Dimitrios Liakos       : Extrapolation schemes; Compound Job, initial MDCI parallelization
   Dimitrios Manganas     : Further ROCIS development; embedding schemes
   Dimitrios Pantazis     : SARC Basis sets
   Anastasios Papadopoulos: AUTO-CI, single reference methods and gradients
   Taras Petrenko         : DFT Hessian,TD-DFT gradient, ASA, ECA, R-Raman, ABS, FL, XAS/XES, NRVS
   Peter Pinski           : DLPNO-MP2, DLPNO-MP2 Gradient
   Christoph Reimann      : Effective Core Potentials
   Marius Retegan         : Local ZFS, SOC
   Christoph Riplinger    : Optimizer, TS searches, QM/MM, DLPNO-CCSD(T), (RO)-DLPNO pert. Triples
   Tobias Risthaus        : Range-separated hybrids, TD-DFT gradient, RPA, STAB
   Michael Roemelt        : Original ROCIS implementation
   Masaaki Saitow         : Open-shell DLPNO-CCSD energy and density
   Barbara Sandhoefer     : DKH picture change effects
   Avijit Sen             : IP-ROCIS
   Kantharuban Sivalingam : CASSCF convergence, NEVPT2, FIC-MRCI
   Bernardo de Souza      : ESD, SOC TD-DFT
   Georgi Stoychev        : AutoAux, RI-MP2 NMR, DLPNO-MP2 response
   Willem Van den Heuvel  : Paramagnetic NMR
   Boris Wezisla          : Elementary symmetry handling
   Frank Wennmohs         : Technical directorship


 We gratefully acknowledge several colleagues who have allowed us to
 interface, adapt or use parts of their codes:
   Stefan Grimme, W. Hujo, H. Kruse, P. Pracht,  : VdW corrections, initial TS optimization,
                  C. Bannwarth, S. Ehlert          DFT functionals, gCP, sTDA/sTD-DF
   Ed Valeev, F. Pavosevic, A. Kumar             : LibInt (2-el integral package), F12 methods
   Garnet Chan, S. Sharma, J. Yang, R. Olivares  : DMRG
   Ulf Ekstrom                                   : XCFun DFT Library
   Mihaly Kallay                                 : mrcc  (arbitrary order and MRCC methods)
   Jiri Pittner, Ondrej Demel                    : Mk-CCSD
   Frank Weinhold                                : gennbo (NPA and NBO analysis)
   Christopher J. Cramer and Donald G. Truhlar   : smd solvation model
   Lars Goerigk                                  : TD-DFT with DH, B97 family of functionals
   V. Asgeirsson, H. Jonsson                     : NEB implementation
   FAccTs GmbH                                   : IRC, NEB, NEB-TS, DLPNO-Multilevel, CI-OPT
                                                   MM, QMMM, 2- and 3-layer-ONIOM, Crystal-QMMM,
                                                   LR-CPCM, SF, NACMEs, symmetry and pop. for TD-DFT,
                                                   nearIR, NL-DFT gradient (VV10), updates on ESD,
                                                   ML-optimized integration grids
   S Lehtola, MJT Oliveira, MAL Marques          : LibXC Library
   Liviu Ungur et al                             : ANISO software


 Your calculation uses the libint2 library for the computation of 2-el integrals
 For citations please refer to: http://libint.valeyev.net

 Your ORCA version has been built with support for libXC version: 5.1.0
 For citations please refer to: https://tddft.org/programs/libxc/

 This ORCA versions uses:
   CBLAS   interface :  Fast vector & matrix operations
   LAPACKE interface :  Fast linear algebra routines
   SCALAPACK package :  Parallel linear algebra routines
   Shared memory     :  Shared parallel matrices
   BLAS/LAPACK       :  OpenBLAS 0.3.15  USE64BITINT DYNAMIC_ARCH NO_AFFINITY Prescott SINGLE_THREADED
        Core in use  :  Prescott
   Copyright (c) 2011-2014, The OpenBLAS Project


================================================================================

----- Orbital basis set information -----
Your calculation utilizes the basis: TZVP 

The basis set includes element-specific modifications.

Your calculation utilizes the basis: CP(PPP) 

----- AuxJ basis set information -----
Your calculation utilizes the auxiliary basis: def2/J
   F. Weigend, Phys. Chem. Chem. Phys. 8, 1057 (2006).

================================================================================
                                        WARNINGS
                       Please study these warnings very carefully!
================================================================================


WARNING: your system is open-shell and RHF/RKS was chosen
  ===> : WILL SWITCH to UHF/UKS


INFO   : the flag for use of the SHARK integral package has been found!

================================================================================
                                       INPUT FILE
================================================================================
NAME = input_74.inp
|  1> ! nofrozencore ReducedPop printbasis
|  2> ! B3LYP TZVP
|  3> 
|  4> %basis
|  5> newgto V "CP(PPP)" end
|  6> end
|  7> 
|  8> %pal
|  9> nprocs 4
| 10> end
| 11> 
| 12> % sym SymThresh 1e-2 end
| 13> * xyz -2 2 
| 14> V -0.20552334744459802 0.7670566631841071 0.7832584907685525
| 15> S -1.9180812663320101 1.0011841673366386 -0.9539691334889375
| 16> S -1.377574882776765 -1.2886694671400138 1.413997123673756
| 17> S 1.2466239697126094 1.7845558358284055 -0.9064619724372092
| 18> S 1.7810328929962027 -0.48547491262900117 1.4848037343778606
| 19> O -0.5036896444879674 1.8676680399163976 1.9008871873471151
| 20> C -0.1992469662602931 -2.1871159077558056 2.3683552467804674
| 21> C 1.135947069765695 -1.8483188023238588 2.3969830038279007
| 22> C -1.1951426878035445 2.1341783903180715 -2.10849345786324
| 23> C 0.11136229817033405 2.457852156164057 -2.0890638424148067
| 24> S -0.8575803975833077 -3.5939235221904617 3.2765256135339396
| 25> S 2.3481875040844535 -2.7847180611166693 3.3410706088010533
| 26> S 0.8609949659781593 3.584436103243646 -3.287771694380371
| 27> S -2.349976975669041 2.790183744135426 -3.33541198842269
| 28> C 2.413786754664097 -4.407266723229441 2.454142919378492
| 29> C 0.7390270363539462 2.638448201213578 -4.866699751894371
| 30> C -0.11453370996458324 -5.046858173082422 2.404935106667727
| 31> C -1.7577529316316662 2.0219387109569578 -4.904089651857927
| 32> C 1.3255993951631042 -5.455272437080446 2.8536501108956194
| 33> H -0.07249284765738172 -4.7558863069209965 1.3475891789922076
| 34> H -0.7419601915703067 -5.8905240780334776 2.728790906387258
| 35> H 1.5411559882152763 -6.244846437655655 2.0372371699371836
| 36> H 1.2483256552623352 -5.237130203237162 3.9886021111355454
| 37> H 3.3549642408909603 -4.8558538881307785 2.805068145054081
| 38> H 2.2757128832171296 -4.159653628364508 1.3939688818530227
| 39> C -0.5900585400931011 2.69884159501896 -5.5770874232204495
| 40> H -2.642411903781584 1.96736005333858 -5.551174770799962
| 41> H -1.5820468499432876 0.9566095368299924 -4.717902905904639
| 42> H -0.83528224012298 3.7170436604630086 -5.987145507467218
| 43> H -0.5055400371100797 2.422477175606605 -6.671013082209387
| 44> H 1.0725084877041928 1.612295923500178 -4.67655831879013
| 45> H 1.5654121436709953 3.0052220412404034 -5.488601248793652
| 46> * 
| 47> 
| 48> % eprnmr
| 49> gtensor true
| 50> Nuclei = all H {aiso,adip,aorb,fgrad,rho}
| 51> Nuclei = all V {aiso,adip,aorb,fgrad,rho}
| 52> end
| 53> 
| 54>                          ****END OF INPUT****
================================================================================

------------------------------------------------------------------------------
                            SYMMETRY HANDLING SETUP
------------------------------------------------------------------------------

------------------
SYMMETRY DETECTION
------------------
The point group will now be determined using a tolerance of 1.0000e-02.
Splitting atom subsets according to nuclear charge, mass and basis set.
Splitting atom subsets according to distance from the molecule's center.
Identifying relative distance patterns of the atoms.
Splitting atom subsets according to atoms' relative distance patterns.
Bring atoms of each subset into input order.
The molecule is neither linear nor planar.
There is at least one atom subset not centered around the molecule's center.
The molecule does not have a center of inversion.
Analyzing the first atom subset for its symmetry.
The subset is an off-center atom pair.
Testing point group C2v.
Test failed.
Testing point group C2.
Test failed.
Testing point group Cs.
Test failed.
Testing point group Cs.
Test failed.
No testing is needed for point group C1.
This point group has been found:    C1
Largest non-degenerate subgroup:    C1


Mass-centered symmetry-perfected Cartesians (point group C1):

Atom          Symmetry-perfected Cartesians (x, y, z; au)
  0      -0.388782403526    1.450957462643    1.481824379234
  1      -3.625047858702    1.893394325910   -1.801060062895
  2      -2.603638820146   -2.433801930016    2.673747657509
  3       2.355378332009    3.373752240432   -1.711284539107
  4       3.365264840539   -0.915984189733    2.807552760211
  5      -0.952235047304    3.530811544545    3.593836535179
  6      -0.376921761976   -4.131619648776    4.477223143864
  7       2.146229301758   -3.491385904544    4.531321764512
  8      -2.258891933636    4.034443118659   -3.982794850913
  9       0.210044682457    4.646097892843   -3.946078198828
 10      -1.620991651981   -6.790100763172    6.193416419971
 11       4.437031731087   -5.260924055669    6.315388784341
 12       1.626645125654    6.775033019696   -6.211307753624
 13      -4.441212467764    5.274113579760   -6.301334862303
 14       4.560996349273   -8.327096666023    4.639338350741
 15       1.396159141543    4.987374958856   -9.195049367490
 16      -0.216836907664   -9.535749343843    4.546349061068
 17      -3.322071214610    3.822340863308   -9.265706038595
 18       2.504620257421  -10.307540451986    5.394297531240
 19      -0.137391191470   -8.985892204121    2.548254828944
 20      -1.402501127069  -11.130046852727    5.158347829420
 21       2.911963184650  -11.799619075538    3.851500660639
 22       2.358594051664   -9.895311371780    7.539045986840
 23       6.339564041654   -9.174803554879    5.302490920752
 24       4.300074545987   -7.859175729555    2.635899765524
 25      -1.115448606487    5.101501933446  -10.537487515210
 26      -4.993834393890    3.719202147652  -10.488519698732
 27      -2.990034840155    1.809160481731   -8.913864078978
 28      -1.578854241090    7.025624986129  -11.312384993437
 29      -0.955731782600    4.579248867597  -12.604707421568
 30       2.026347755338    3.048228182278   -8.835734132211
 31       2.957800675524    5.680477069594  -10.370272878905


------------------
SYMMETRY REDUCTION
------------------
ORCA supports only abelian point groups.
It is now checked, if the determined point group is supported:
Point Group ( C1    ) is          ... supported

The point group is C1 - hence turning off symmetry
If this is a round-off problem, please increase the symmetry
        detection tolerance (%method SymThresh)

Storing the symmetry object:
Symmetry file                     ... input_74.sym.tmp
Writing symmetry information      ... done

                       ****************************
                       * Single Point Calculation *
                       ****************************

---------------------------------
CARTESIAN COORDINATES (ANGSTROEM)
---------------------------------
  V     -0.205735    0.767814    0.784148
  S     -1.918293    1.001941   -0.953080
  S     -1.377786   -1.287913    1.414886
  S      1.246413    1.785313   -0.905573
  S      1.780821   -0.484718    1.485693
  O     -0.503901    1.868425    1.901776
  C     -0.199458   -2.186359    2.369244
  C      1.135736   -1.847562    2.397872
  C     -1.195354    2.134935   -2.107604
  C      0.111151    2.458609   -2.088175
  S     -0.857792   -3.593167    3.277415
  S      2.347976   -2.783961    3.341960
  S      0.860784    3.585193   -3.286882
  S     -2.350188    2.790941   -3.334523
  C      2.413575   -4.406510    2.455032
  C      0.738816    2.639205   -4.865811
  C     -0.114745   -5.046101    2.405824
  C     -1.757964    2.022696   -4.903200
  C      1.325388   -5.454515    2.854539
  H     -0.072704   -4.755129    1.348478
  H     -0.742172   -5.889767    2.729680
  H      1.540945   -6.244089    2.038126
  H      1.248114   -5.236373    3.989491
  H      3.354753   -4.855097    2.805957
  H      2.275501   -4.158897    1.394858
  C     -0.590270    2.699599   -5.576198
  H     -2.642623    1.968117   -5.550286
  H     -1.582258    0.957366   -4.717014
  H     -0.835494    3.717801   -5.986256
  H     -0.505751    2.423234   -6.670124
  H      1.072297    1.613053   -4.675669
  H      1.565201    3.005979   -5.487712

----------------------------
CARTESIAN COORDINATES (A.U.)
----------------------------
  NO LB      ZA    FRAG     MASS         X           Y           Z
   0 V    23.0000    0    50.940   -0.388782    1.450957    1.481824
   1 S    16.0000    0    32.060   -3.625048    1.893394   -1.801060
   2 S    16.0000    0    32.060   -2.603639   -2.433802    2.673748
   3 S    16.0000    0    32.060    2.355378    3.373752   -1.711285
   4 S    16.0000    0    32.060    3.365265   -0.915984    2.807553
   5 O     8.0000    0    15.999   -0.952235    3.530812    3.593837
   6 C     6.0000    0    12.011   -0.376922   -4.131620    4.477223
   7 C     6.0000    0    12.011    2.146229   -3.491386    4.531322
   8 C     6.0000    0    12.011   -2.258892    4.034443   -3.982795
   9 C     6.0000    0    12.011    0.210045    4.646098   -3.946078
  10 S    16.0000    0    32.060   -1.620992   -6.790101    6.193416
  11 S    16.0000    0    32.060    4.437032   -5.260924    6.315389
  12 S    16.0000    0    32.060    1.626645    6.775033   -6.211308
  13 S    16.0000    0    32.060   -4.441212    5.274114   -6.301335
  14 C     6.0000    0    12.011    4.560996   -8.327097    4.639338
  15 C     6.0000    0    12.011    1.396159    4.987375   -9.195049
  16 C     6.0000    0    12.011   -0.216837   -9.535749    4.546349
  17 C     6.0000    0    12.011   -3.322071    3.822341   -9.265706
  18 C     6.0000    0    12.011    2.504620  -10.307540    5.394298
  19 H     1.0000    0     1.008   -0.137391   -8.985892    2.548255
  20 H     1.0000    0     1.008   -1.402501  -11.130047    5.158348
  21 H     1.0000    0     1.008    2.911963  -11.799619    3.851501
  22 H     1.0000    0     1.008    2.358594   -9.895311    7.539046
  23 H     1.0000    0     1.008    6.339564   -9.174804    5.302491
  24 H     1.0000    0     1.008    4.300075   -7.859176    2.635900
  25 C     6.0000    0    12.011   -1.115449    5.101502  -10.537488
  26 H     1.0000    0     1.008   -4.993834    3.719202  -10.488520
  27 H     1.0000    0     1.008   -2.990035    1.809160   -8.913864
  28 H     1.0000    0     1.008   -1.578854    7.025625  -11.312385
  29 H     1.0000    0     1.008   -0.955732    4.579249  -12.604707
  30 H     1.0000    0     1.008    2.026348    3.048228   -8.835734
  31 H     1.0000    0     1.008    2.957801    5.680477  -10.370273

--------------------------------
INTERNAL COORDINATES (ANGSTROEM)
--------------------------------
 V      0   0   0     0.000000000000     0.00000000     0.00000000
 S      1   0   0     2.450638719238     0.00000000     0.00000000
 S      1   2   0     2.448988760164    85.88976419     0.00000000
 S      1   2   3     2.449324731602    83.43010150   145.67630614
 S      1   2   3     2.451001177820   144.89763059    72.40004117
 O      1   2   3     1.596666041068   107.44853934   252.41466913
 C      3   1   2     1.762515847485   104.32338929   161.68622967
 C      7   3   1     1.377804826876   122.26103369   346.55907764
 C      2   1   3     1.771790764511   103.76121872   198.83389665
 C      9   2   1     1.346141706890   122.70839996    13.69469649
 S      7   3   1     1.799245393457   115.29384049   167.64626943
 S      8   7   3     1.799353174985   122.39876658   181.38373786
 S     10   9   2     1.807772397407   122.86998218   178.58236105
 S      9   2   1     1.808124535893   114.42856531   192.42222563
 C     12   8   7     1.850299475454   103.22262316    67.55718729
 C     13  10   9     1.844663410340   102.74191129   292.95772665
 C     11   7   3     1.850083103918   103.25570783   111.02744012
 C     14   9   2     1.844364215956   102.76330926   248.35700877
 C     15  12   8     1.562713569953   116.15833623   275.70336039
 H     17  11   7     1.097457275603   105.13282242   324.76726473
 H     17  11   7     1.100144866828   103.56281247   197.36398679
 H     19  15  12     1.156037126288    98.49113166   171.93795176
 H     19  15  12     1.158306223722    99.82567059   323.66164308
 H     15  12   8     1.100088186970   103.59188290   162.45696803
 H     15  12   8     1.097426821509   105.11472095    35.12211085
 C     18  14   9     1.508188882979   116.17960291   278.29947797
 H     18  14   9     1.097414906965   105.27047037   153.05877874
 H     18  14   9     1.095657054355   108.17793710    46.36508210
 H     26  18  14     1.124730074990   113.59010460   292.41242437
 H     26  18  14     1.131456590885   112.31111905   199.92172900
 H     16  13  10     1.095605832421   108.15815313   313.78289995
 H     16  13  10     1.097359042050   105.30101165   207.01444753

---------------------------
INTERNAL COORDINATES (A.U.)
---------------------------
 V      0   0   0     0.000000000000     0.00000000     0.00000000
 S      1   0   0     4.631036032543     0.00000000     0.00000000
 S      1   2   0     4.627918061762    85.88976419     0.00000000
 S      1   2   3     4.628552955767    83.43010150   145.67630614
 S      1   2   3     4.631720979998   144.89763059    72.40004117
 O      1   2   3     3.017261544952   107.44853934   252.41466913
 C      3   1   2     3.330672258443   104.32338929   161.68622967
 C      7   3   1     2.603673788790   122.26103369   346.55907764
 C      2   1   3     3.348199311536   103.76121872   198.83389665
 C      9   2   1     2.543839163471   122.70839996    13.69469649
 S      7   3   1     3.400081041354   115.29384049   167.64626943
 S      8   7   3     3.400284718924   122.39876658   181.38373786
 S     10   9   2     3.416194743561   122.86998218   178.58236105
 S      9   2   1     3.416860188861   114.42856531   192.42222563
 C     12   8   7     3.496559274346   103.22262316    67.55718729
 C     13  10   9     3.485908654809   102.74191129   292.95772665
 C     11   7   3     3.496150391400   103.25570783   111.02744012
 C     14   9   2     3.485343259362   102.76330926   248.35700877
 C     15  12   8     2.953100672974   116.15833623   275.70336039
 H     17  11   7     2.073893694568   105.13282242   324.76726473
 H     17  11   7     2.078972505945   103.56281247   197.36398679
 H     19  15  12     2.184593569330    98.49113166   171.93795176
 H     19  15  12     2.188881542051    99.82567059   323.66164308
 H     15  12   8     2.078865396534   103.59188290   162.45696803
 H     15  12   8     2.073836144672   105.11472095    35.12211085
 C     18  14   9     2.850063947055   116.17960291   278.29947797
 H     18  14   9     2.073813629447   105.27047037   153.05877874
 H     18  14   9     2.070491769429   108.17793710    46.36508210
 H     26  18  14     2.125431816316   113.59010460   292.41242437
 H     26  18  14     2.138143089194   112.31111905   199.92172900
 H     16  13  10     2.070394974002   108.15815313   313.78289995
 H     16  13  10     2.073708060057   105.30101165   207.01444753

---------------------
BASIS SET INFORMATION
---------------------
There are 5 groups of distinct atoms

 Group   1 Type V   : 17s11p5d1f contracted to 17s7p3d1f pattern {11111111111111111/3311111/311/1}
 Group   2 Type S   : 14s9p1d contracted to 5s4p1d pattern {73211/6111/1}
 Group   3 Type O   : 11s6p1d contracted to 5s3p1d pattern {62111/411/1}
 Group   4 Type C   : 11s6p1d contracted to 5s3p1d pattern {62111/411/1}
 Group   5 Type H   : 5s1p contracted to 3s1p pattern {311/1}

Atom   0V    basis set group =>   1
Atom   1S    basis set group =>   2
Atom   2S    basis set group =>   2
Atom   3S    basis set group =>   2
Atom   4S    basis set group =>   2
Atom   5O    basis set group =>   3
Atom   6C    basis set group =>   4
Atom   7C    basis set group =>   4
Atom   8C    basis set group =>   4
Atom   9C    basis set group =>   4
Atom  10S    basis set group =>   2
Atom  11S    basis set group =>   2
Atom  12S    basis set group =>   2
Atom  13S    basis set group =>   2
Atom  14C    basis set group =>   4
Atom  15C    basis set group =>   4
Atom  16C    basis set group =>   4
Atom  17C    basis set group =>   4
Atom  18C    basis set group =>   4
Atom  19H    basis set group =>   5
Atom  20H    basis set group =>   5
Atom  21H    basis set group =>   5
Atom  22H    basis set group =>   5
Atom  23H    basis set group =>   5
Atom  24H    basis set group =>   5
Atom  25C    basis set group =>   4
Atom  26H    basis set group =>   5
Atom  27H    basis set group =>   5
Atom  28H    basis set group =>   5
Atom  29H    basis set group =>   5
Atom  30H    basis set group =>   5
Atom  31H    basis set group =>   5

-------------------------
BASIS SET IN INPUT FORMAT
-------------------------

 # Basis set for element : H 
 NewGTO H 
 S 3 
   1      34.0613410000      0.0254393168
   2       5.1235746000      0.1900859340
   3       1.1646626000      0.8524411390
 S 1 
   1       0.3272304100      1.0000000000
 S 1 
   1       0.1030724100      1.0000000000
 P 1 
   1       0.8000000000      1.0000000000
  end;

 # Basis set for element : C 
 NewGTO C 
 S 6 
   1   13575.3496820000      0.0006064601
   2    2035.2333680000      0.0046978985
   3     463.2256235900      0.0243324735
   4     131.2001959800      0.0973999560
   5      42.8530158900      0.3019558443
   6      15.5841857700      0.6623361013
 S 2 
   1       6.2067138500      0.6559530795
   2       2.5764896500      0.3758563390
 S 1 
   1       0.5769633900      1.0000000000
 S 1 
   1       0.2297283100      1.0000000000
 S 1 
   1       0.0951644400      1.0000000000
 P 4 
   1      34.6972322400      0.0113272290
   2       7.9582622800      0.0761696612
   3       2.3780826900      0.3019225154
   4       0.8143320800      0.7278502776
 P 1 
   1       0.2888754700      1.0000000000
 P 1 
   1       0.1005682400      1.0000000000
 D 1 
   1       0.8000000000      1.0000000000
  end;

 # Basis set for element : O 
 NewGTO O 
 S 6 
   1   27032.3826310000      0.0005722654
   2    4052.3871392000      0.0044353333
   3     922.3272271000      0.0230201034
   4     261.2407098900      0.0928224938
   5      85.3546413500      0.2937849971
   6      31.0350352400      0.6740160462
 S 2 
   1      12.2608607300      0.6383993750
   2       4.9987076000      0.3953458663
 S 1 
   1       1.1703108200      1.0000000000
 S 1 
   1       0.4647474100      1.0000000000
 S 1 
   1       0.1850453600      1.0000000000
 P 4 
   1      63.2749548000      0.0120183316
   2      14.6270493800      0.0830054304
   3       4.4501223500      0.3199174388
   4       1.5275799600      0.7071554258
 P 1 
   1       0.5293511800      1.0000000000
 P 1 
   1       0.1747842100      1.0000000000
 D 1 
   1       1.2000000000      1.0000000000
  end;

 # Basis set for element : S 
 NewGTO S 
 S 7 
   1   60700.9281040000      0.0005238013
   2    9102.6106854000      0.0040506304
   3    2071.4166009000      0.0208270003
   4     586.0247682100      0.0814968475
   5     190.5539502100      0.2374911358
   6      67.6303842600      0.4472617145
   7      25.1273069100      0.3489191913
 S 3 
   1     112.5746301000      0.1004556993
   2      34.7955542200      0.4339117282
   3       6.5115556200     -1.2084330582
 S 2 
   1       3.2399032300      0.6749812922
   2       1.5477160900      0.3470879597
 S 1 
   1       0.4054103000      1.0000000000
 S 1 
   1       0.1455065100      1.0000000000
 P 6 
   1     564.3671602700      0.0025564845
   2     133.4262437900      0.0202874255
   3      42.4682711900      0.0927670112
   4      15.6165275800      0.2650208365
   5       6.1093988500      0.4486298663
   6       2.4404160200      0.3596369916
 P 1 
   1       0.8388220100      1.0000000000
 P 1 
   1       0.3128874700      1.0000000000
 P 1 
   1       0.1077010900      1.0000000000
 D 1 
   1       0.5500000000      1.0000000000
  end;

 # Basis set for element : V 
 NewGTO V 
 S 1 
   1  4239814.9912500000      1.0000000000
 S 1 
   1  1695925.9965000001      1.0000000000
 S 1 
   1  678370.3986000001      1.0000000000
 S 1 
   1  271348.1594400000      1.0000000000
 S 1 
   1   40672.0050780000      1.0000000000
 S 1 
   1    9257.0761385000      1.0000000000
 S 1 
   1    2622.7328773000      1.0000000000
 S 1 
   1     858.5948018500      1.0000000000
 S 1 
   1     314.1941865000      1.0000000000
 S 1 
   1     124.4786212700      1.0000000000
 S 1 
   1      50.4693993090      1.0000000000
 S 1 
   1      12.5138469110      1.0000000000
 S 1 
   1       5.3447758082      1.0000000000
 S 1 
   1       1.5755631295      1.0000000000
 S 1 
   1       0.6306903307      1.0000000000
 S 1 
   1       0.0879544416      1.0000000000
 S 1 
   1       0.0342969197      1.0000000000
 P 3 
   1    1450.0319327000     -0.0222847647
   2     343.7504988400     -0.1817959329
   3     110.8252170800     -0.8607412073
 P 3 
   1      41.8224645460     -0.2522537814
   2      17.0880737100     -0.4620379520
   3       7.2613218939     -0.3990010670
 P 1 
   1       2.9458145262      1.0000000000
 P 1 
   1       1.1650209680      1.0000000000
 P 1 
   1       0.4339937839      1.0000000000
 D 3 
   1      27.3603358640      0.0575501019
   2       7.4542765527      0.3023798347
   3       2.4632270217      0.7724212088
 D 1 
   1       0.8249954244      1.0000000000
 D 1 
   1       0.2526297057      1.0000000000
 P 1 
   1       0.1112480000      1.0000000000
 P 1 
   1       0.0363780000      1.0000000000
 F 1 
   1       1.8000000000      1.0000000000
  end;

---------------------------------
AUXILIARY/J BASIS SET INFORMATION
---------------------------------
There are 5 groups of distinct atoms

 Group   1 Type V   : 19s5p5d3f3g contracted to 8s5p5d2f3g pattern {121111111/11111/11111/21/111}
 Group   2 Type S   : 14s5p5d2f1g contracted to 8s4p3d1f1g pattern {71111111/2111/311/2/1}
 Group   3 Type O   : 12s5p4d2f1g contracted to 6s4p3d1f1g pattern {711111/2111/211/2/1}
 Group   4 Type C   : 12s5p4d2f1g contracted to 6s4p3d1f1g pattern {711111/2111/211/2/1}
 Group   5 Type H   : 5s2p1d contracted to 3s1p1d pattern {311/2/1}

Atom   0V    basis set group =>   1
Atom   1S    basis set group =>   2
Atom   2S    basis set group =>   2
Atom   3S    basis set group =>   2
Atom   4S    basis set group =>   2
Atom   5O    basis set group =>   3
Atom   6C    basis set group =>   4
Atom   7C    basis set group =>   4
Atom   8C    basis set group =>   4
Atom   9C    basis set group =>   4
Atom  10S    basis set group =>   2
Atom  11S    basis set group =>   2
Atom  12S    basis set group =>   2
Atom  13S    basis set group =>   2
Atom  14C    basis set group =>   4
Atom  15C    basis set group =>   4
Atom  16C    basis set group =>   4
Atom  17C    basis set group =>   4
Atom  18C    basis set group =>   4
Atom  19H    basis set group =>   5
Atom  20H    basis set group =>   5
Atom  21H    basis set group =>   5
Atom  22H    basis set group =>   5
Atom  23H    basis set group =>   5
Atom  24H    basis set group =>   5
Atom  25C    basis set group =>   4
Atom  26H    basis set group =>   5
Atom  27H    basis set group =>   5
Atom  28H    basis set group =>   5
Atom  29H    basis set group =>   5
Atom  30H    basis set group =>   5
Atom  31H    basis set group =>   5

-------------------------------------
AUXILIARY/J BASIS SET IN INPUT FORMAT
-------------------------------------

 # Auxiliary/J basis set for element : H 
 NewAuxJGTO H 
 S 3 
   1      15.6752927000      0.1007184237
   2       3.6063578000      0.3404257499
   3       1.2080016000      0.6491996172
 S 1 
   1       0.4726794000      1.0000000000
 S 1 
   1       0.2018100000      1.0000000000
 P 2 
   1       2.0281365000      0.5596620919
   2       0.5358730000      0.5596620919
 D 1 
   1       2.2165124000      1.0000000000
  end;

 # Auxiliary/J basis set for element : C 
 NewAuxJGTO C 
 S 7 
   1    1861.0916331000      0.0134602335
   2     642.9939764000      0.0299160374
   3     235.1105725000      0.1008649584
   4      90.7028894000      0.2370970548
   5      36.7794552000      0.3924037254
   6      15.6046273000      0.3195862154
   7       6.8907294000      0.0530104441
 S 1 
   1       3.1478850000     -1.0000000000
 S 1 
   1       1.4777287000      1.0000000000
 S 1 
   1       0.7076466000      1.0000000000
 S 1 
   1       0.3430122000      1.0000000000
 S 1 
   1       0.1669453000      1.0000000000
 P 2 
   1      13.5472892000     -0.6769313712
   2       5.4669419000     -0.3779500978
 P 1 
   1       2.1751721000      1.0000000000
 P 1 
   1       0.8582194000      1.0000000000
 P 1 
   1       0.3376720000      1.0000000000
 D 2 
   1       5.9287253000     -0.3533329857
   2       1.9809209000     -0.7456525731
 D 1 
   1       0.8055417000     -1.0000000000
 D 1 
   1       0.3531244000     -1.0000000000
 F 2 
   1       1.6755626000      0.6311076882
   2       0.5997536000      0.4968166032
 G 1 
   1       1.0024600000     -1.0000000000
  end;

 # Auxiliary/J basis set for element : O 
 NewAuxJGTO O 
 S 7 
   1    2876.8216605000      0.0168151159
   2    1004.7443032000      0.0340137548
   3     369.7579954000      0.1194951309
   4     142.9442404000      0.2664627624
   5      57.8366425000      0.4202764046
   6      24.3864983000      0.2765077335
   7      10.6622662000      0.0057008815
 S 1 
   1       4.8070437000     -1.0000000000
 S 1 
   1       2.2210770000      1.0000000000
 S 1 
   1       1.0447795000      1.0000000000
 S 1 
   1       0.4968425000      1.0000000000
 S 1 
   1       0.2371384000      1.0000000000
 P 2 
   1      64.2613382000     -0.2731534179
   2      16.3006076000     -0.8168011598
 P 1 
   1       4.3550542000      1.0000000000
 P 1 
   1       1.2019554000      1.0000000000
 P 1 
   1       0.3354196000      1.0000000000
 D 2 
   1       9.2146611000     -0.4661230638
   2       2.8435251000     -0.6600908911
 D 1 
   1       0.9955759000     -1.0000000000
 D 1 
   1       0.3649441000     -1.0000000000
 F 2 
   1       2.6420115000      0.5931563945
   2       0.7345613000      0.5931563945
 G 1 
   1       1.3931000000     -1.0000000000
  end;

 # Auxiliary/J basis set for element : S 
 NewAuxJGTO S 
 S 7 
   1    7399.0303145000      0.0295137551
   2    2710.1675859000      0.0559686311
   3    1034.3279062000      0.1764696370
   4     410.4645411000      0.3577969368
   5     168.9762502000      0.4299293578
   6      71.9687889000      0.1259148089
   7      31.6172683000     -0.0646025788
 S 1 
   1      14.2796836000      1.0000000000
 S 1 
   1       6.6060948000      1.0000000000
 S 1 
   1       3.1181477000      1.0000000000
 S 1 
   1       1.4954039000     -1.0000000000
 S 1 
   1       0.7254779000      1.0000000000
 S 1 
   1       0.3544216000      1.0000000000
 S 1 
   1       0.1735525000      1.0000000000
 P 2 
   1      12.6998799000      1.4059102813
   2       4.4295784000     -1.2124994202
 P 1 
   1       1.5232889000      1.0000000000
 P 1 
   1       0.5194667000     -1.0000000000
 P 1 
   1       0.1766547000     -1.0000000000
 D 3 
   1      16.8546461000      1.0295742104
   2       5.0810461000     -0.7461553923
   3       1.5102323000      0.8357028005
 D 1 
   1       0.4451331000      1.0000000000
 D 1 
   1       0.1308362000      1.0000000000
 F 2 
   1       1.0809860000      0.5572698934
   2       0.4161474000      0.5572698934
 G 1 
   1       0.6707100000     -1.0000000000
  end;

 # Auxiliary/J basis set for element : V 
 NewAuxJGTO V 
 S 12 
   1   11942.0842430000      0.0459866720
   2    2430.7110193000      0.1744615821
   3     841.0764301000      0.2900402792
   4     494.7508273000      0.1411212903
   5     291.0298903000      0.2660697186
   6     171.1940483000      0.0446365706
   7      59.2366916000     -0.0408204801
   8      34.8451117000      0.1394665381
   9      20.4971240000      0.2164746715
  10      12.0571314000      0.0864266611
  11       7.0924300000     -0.0568501658
  12       4.1720176000     -0.0126212852
 S 1 
   1       2.4541279000      1.0000000000
 S 1 
   1       1.4436046000      1.0000000000
 S 1 
   1       0.8491792000      1.0000000000
 S 1 
   1       0.2938336000      1.0000000000
 S 1 
   1       0.1728433000      1.0000000000
 S 1 
   1       0.1016725000      1.0000000000
 S 1 
   1       0.0598074000      1.0000000000
 P 1 
   1      16.7130979000     -1.0000000000
 P 1 
   1       4.7454037000     -1.0000000000
 P 1 
   1       1.3889998000      1.0000000000
 P 1 
   1       0.4142440000     -1.0000000000
 P 1 
   1       0.1243234000      1.0000000000
 D 1 
   1       7.7143225000      1.0000000000
 D 1 
   1       3.1170731000      1.0000000000
 D 1 
   1       1.2767950000     -1.0000000000
 D 1 
   1       0.5273386000      1.0000000000
 D 1 
   1       0.2184050000      1.0000000000
 F 2 
   1       3.1309344000     -1.0825667766
   2       1.0419780000      0.1809223232
 F 1 
   1       0.3559044000      1.0000000000
 G 1 
   1       8.7130110000      1.0000000000
 G 1 
   1       2.7493872000      1.0000000000
 G 1 
   1       0.8775089000      1.0000000000
  end;



           ************************************************************
           *        Program running with 4 parallel MPI-processes     *
           *              working on a common directory               *
           ************************************************************
------------------------------------------------------------------------------
                           ORCA GTO INTEGRAL CALCULATION
                           -- RI-GTO INTEGRALS CHOSEN --
------------------------------------------------------------------------------
------------------------------------------------------------------------------
                   ___                                                        
                  /   \      - P O W E R E D   B Y -                         
                 /     \                                                     
                 |  |  |   _    _      __       _____    __    __             
                 |  |  |  | |  | |    /  \     |  _  \  |  |  /  |          
                  \  \/   | |  | |   /    \    | | | |  |  | /  /          
                 / \  \   | |__| |  /  /\  \   | |_| |  |  |/  /          
                |  |  |   |  __  | /  /__\  \  |    /   |      \           
                |  |  |   | |  | | |   __   |  |    \   |  |\   \          
                \     /   | |  | | |  |  |  |  | |\  \  |  | \   \       
                 \___/    |_|  |_| |__|  |__|  |_| \__\ |__|  \__/        
                                                                              
                      - O R C A' S   B I G   F R I E N D -                    
                                      &                                       
                       - I N T E G R A L  F E E D E R -                       
                                                                              
 v1 FN, 2020, v2 2021                                                         
------------------------------------------------------------------------------


Reading SHARK input file input_74.SHARKINP.tmp ... ok
----------------------
SHARK INTEGRAL PACKAGE
----------------------

Number of atoms                             ...     32
Number of basis functions                   ...    517
Number of shells                            ...    255
Maximum angular momentum                    ...      3
Integral batch strategy                     ... SHARK/LIBINT Hybrid
RI-J (if used) integral strategy            ... SPLIT-RIJ (Revised 2003 algorithm where possible)
Printlevel                                  ...      1
Contraction scheme used                     ... SEGMENTED contraction
Coulomb Range Separation                    ... NOT USED
Exchange Range Separation                   ... NOT USED
Finite Nucleus Model                        ... NOT USED
Auxiliary Coulomb fitting basis             ... AVAILABLE
   # of basis functions in Aux-J            ...   1168
   # of shells in Aux-J                     ...    384
   Maximum angular momentum in Aux-J        ...      4
Auxiliary J/K fitting basis                 ... NOT available
Auxiliary Correlation fitting basis         ... NOT available
Auxiliary 'external' fitting basis          ... NOT available
Integral threshold                          ...     1.000000e-10
Primitive cut-off                           ...     1.000000e-11
Primitive pair pre-selection threshold      ...     1.000000e-11

Calculating pre-screening integrals         ... done (  0.1 sec) Dimension = 255
Organizing shell pair data                  ... done (  0.1 sec)
Shell pair information
Total number of shell pairs                 ...     32640
Shell pairs after pre-screening             ...     17862
Total number of primitive shell pairs       ...    123863
Primitive shell pairs kept                  ...     41715
          la=0 lb=0:   5396 shell pairs
          la=1 lb=0:   7086 shell pairs
          la=1 lb=1:   2291 shell pairs
          la=2 lb=0:   1679 shell pairs
          la=2 lb=1:   1119 shell pairs
          la=2 lb=2:    153 shell pairs
          la=3 lb=0:     73 shell pairs
          la=3 lb=1:     52 shell pairs
          la=3 lb=2:     12 shell pairs
          la=3 lb=3:      1 shell pairs

Calculating one electron integrals          ... done (  0.0 sec)
Calculating RI/J V-Matrix + Cholesky decomp.... done (  0.1 sec)
Calculating Nuclear repulsion               ... done (  0.0 sec) ENN=   3211.719096349962 Eh

SHARK setup successfully completed in   0.5 seconds

Maximum memory used throughout the entire GTOINT-calculation: 31.9 MB


           ************************************************************
           *        Program running with 4 parallel MPI-processes     *
           *              working on a common directory               *
           ************************************************************
-------------------------------------------------------------------------------
                                 ORCA SCF
-------------------------------------------------------------------------------

------------
SCF SETTINGS
------------
Hamiltonian:
 Density Functional     Method          .... DFT(GTOs)
 Exchange Functional    Exchange        .... B88
   X-Alpha parameter    XAlpha          ....  0.666667
   Becke's b parameter  XBeta           ....  0.004200
 Correlation Functional Correlation     .... LYP
 LDA part of GGA corr.  LDAOpt          .... VWN-5
 Gradients option       PostSCFGGA      .... off
 Hybrid DFT is turned on
   Fraction HF Exchange ScalHFX         ....  0.200000
   Scaling of DF-GGA-X  ScalDFX         ....  0.720000
   Scaling of DF-GGA-C  ScalDFC         ....  0.810000
   Scaling of DF-LDA-C  ScalLDAC        ....  1.000000
   Perturbative correction              ....  0.000000
   Density functional embedding theory  .... OFF
   NL short-range parameter             ....  4.800000
 RI-approximation to the Coulomb term is turned on
   Number of AuxJ basis functions       .... 1168
   RIJ-COSX (HFX calculated with COS-X)).... on


General Settings:
 Integral files         IntName         .... input_74
 Hartree-Fock type      HFTyp           .... UHF
 Total Charge           Charge          ....   -2
 Multiplicity           Mult            ....    2
 Number of Electrons    NEL             ....  233
 Basis Dimension        Dim             ....  517
 Nuclear Repulsion      ENuc            ....   3211.7190963500 Eh

Convergence Acceleration:
 DIIS                   CNVDIIS         .... on
   Start iteration      DIISMaxIt       ....    12
   Startup error        DIISStart       ....  0.200000
   # of expansion vecs  DIISMaxEq       ....     5
   Bias factor          DIISBfac        ....   1.050
   Max. coefficient     DIISMaxC        ....  10.000
 Trust-Rad. Augm. Hess. CNVTRAH         .... auto
   Auto Start mean grad. ratio tolernc. ....  1.125000
   Auto Start start iteration           ....    20
   Auto Start num. interpolation iter.  ....    10
   Max. Number of Micro iterations      ....    16
   Max. Number of Macro iterations      .... Maxiter - #DIIS iter
   Number of Davidson start vectors     ....     2
   Converg. threshold I  (grad. norm)   ....   5.000e-05
   Converg. threshold II (energy diff.) ....   1.000e-06
   Grad. Scal. Fac. for Micro threshold ....   0.100
   Minimum threshold for Micro iter.    ....   0.010
   NR start threshold (gradient norm)   ....   0.001
   Initial trust radius                 ....   0.400
   Minimum AH scaling param. (alpha)    ....   1.000
   Maximum AH scaling param. (alpha)    .... 1000.000
   Orbital update algorithm             .... Taylor
   White noise on init. David. guess    .... on
   Maximum white noise                  ....   0.010
   Quad. conv. algorithm                .... NR
 SOSCF                  CNVSOSCF        .... off
 Level Shifting         CNVShift        .... on
   Level shift para.    LevelShift      ....    0.2500
   Turn off err/grad.   ShiftErr        ....    0.0010
 Zerner damping         CNVZerner       .... off
 Static damping         CNVDamp         .... on
   Fraction old density DampFac         ....    0.7000
   Max. Damping (<1)    DampMax         ....    0.9800
   Min. Damping (>=0)   DampMin         ....    0.0000
   Turn off err/grad.   DampErr         ....    0.1000
 Fernandez-Rico         CNVRico         .... off

SCF Procedure:
 Maximum # iterations   MaxIter         ....   125
 SCF integral mode      SCFMode         .... Direct
   Integral package                     .... SHARK and LIBINT hybrid scheme
 Reset frequency        DirectResetFreq ....    20
 Integral Threshold     Thresh          ....  1.000e-10 Eh
 Primitive CutOff       TCut            ....  1.000e-11 Eh

Convergence Tolerance:
 Convergence Check Mode ConvCheckMode   .... Total+1el-Energy
 Convergence forced     ConvForced      .... 0
 Energy Change          TolE            ....  1.000e-06 Eh
 1-El. energy change                    ....  1.000e-03 Eh
 DIIS Error             TolErr          ....  1.000e-06


Diagonalization of the overlap matrix:
Smallest eigenvalue                        ... 1.816e-04
Time for diagonalization                   ...    0.086 sec
Threshold for overlap eigenvalues          ... 1.000e-08
Number of eigenvalues below threshold      ... 0
Time for construction of square roots      ...    0.113 sec
Total time needed                          ...    0.200 sec

Time for model grid setup =    0.356 sec

------------------------------
INITIAL GUESS: MODEL POTENTIAL
------------------------------
Loading Hartree-Fock densities                     ... done
Calculating cut-offs                               ... done
Initializing the effective Hamiltonian             ... done
Setting up the integral package (SHARK)            ... done
Starting the Coulomb interaction                   ... done (   0.4 sec)
Reading the grid                                   ... done
Mapping shells                                     ... done
Starting the XC term evaluation                    ... done (   0.2 sec)
  promolecular density results
     # of electrons  =    230.996763928
     EX              =   -307.523465226
     EC              =     -9.026084322
     EX+EC           =   -316.549549548
Transforming the Hamiltonian                       ... done (   0.1 sec)
Diagonalizing the Hamiltonian                      ... done (   0.1 sec)
Back transforming the eigenvectors                 ... done (   0.0 sec)
Now organizing SCF variables                       ... done
                      ------------------
                      INITIAL GUESS DONE (   1.2 sec)
                      ------------------
-------------------
DFT GRID GENERATION
-------------------

General Integration Accuracy     IntAcc      ... 4.388
Radial Grid Type                 RadialGrid  ... OptM3 with GC (2021)
Angular Grid (max. ang.)         AngularGrid ... 4 (Lebedev-302)
Angular grid pruning method      GridPruning ... 4 (adaptive)
Weight generation scheme         WeightScheme... Becke
Basis function cutoff            BFCut       ... 1.0000e-10
Integration weight cutoff        WCut        ... 1.0000e-14
Angular grids for H and He will be reduced by one unit
Partially contracted basis set               ... off
Rotationally invariant grid construction     ... off

Total number of grid points                  ...   184097
Total number of batches                      ...     2892
Average number of points per batch           ...       63
Average number of grid points per atom       ...     5753
Time for grid setup =    1.601 sec

--------------------
COSX GRID GENERATION
--------------------

GRIDX 1
-------
General Integration Accuracy     IntAcc      ... 3.816
Radial Grid Type                 RadialGrid  ... OptM3 with GC (2021)
Angular Grid (max. ang.)         AngularGrid ... 1 (Lebedev-50)
Angular grid pruning method      GridPruning ... 4 (adaptive)
Weight generation scheme         WeightScheme... Becke
Basis function cutoff            BFCut       ... 1.0000e-10
Integration weight cutoff        WCut        ... 1.0000e-14
Angular grids for H and He will be reduced by one unit
Partially contracted basis set               ... on
Rotationally invariant grid construction     ... off

Total number of grid points                  ...    22816
Total number of batches                      ...      374
Average number of points per batch           ...       61
Average number of grid points per atom       ...      713
UseSFitting                                  ... on

GRIDX 2
-------
General Integration Accuracy     IntAcc      ... 4.020
Radial Grid Type                 RadialGrid  ... OptM3 with GC (2021)
Angular Grid (max. ang.)         AngularGrid ... 2 (Lebedev-110)
Angular grid pruning method      GridPruning ... 4 (adaptive)
Weight generation scheme         WeightScheme... Becke
Basis function cutoff            BFCut       ... 1.0000e-10
Integration weight cutoff        WCut        ... 1.0000e-14
Angular grids for H and He will be reduced by one unit
Partially contracted basis set               ... on
Rotationally invariant grid construction     ... off

Total number of grid points                  ...    49159
Total number of batches                      ...      785
Average number of points per batch           ...       62
Average number of grid points per atom       ...     1536
UseSFitting                                  ... on

GRIDX 3
-------
General Integration Accuracy     IntAcc      ... 4.338
Radial Grid Type                 RadialGrid  ... OptM3 with GC (2021)
Angular Grid (max. ang.)         AngularGrid ... 3 (Lebedev-194)
Angular grid pruning method      GridPruning ... 4 (adaptive)
Weight generation scheme         WeightScheme... Becke
Basis function cutoff            BFCut       ... 1.0000e-10
Integration weight cutoff        WCut        ... 1.0000e-14
Angular grids for H and He will be reduced by one unit
Partially contracted basis set               ... on
Rotationally invariant grid construction     ... off

Total number of grid points                  ...   112181
Total number of batches                      ...     1769
Average number of points per batch           ...       63
Average number of grid points per atom       ...     3506
UseSFitting                                  ... on

Time for X-Grid setup             =    1.806 sec

--------------
SCF ITERATIONS
--------------
ITER       Energy         Delta-E        Max-DP      RMS-DP      [F,P]     Damp
               ***  Starting incremental Fock matrix formation  ***
  0  -4591.9583261008   0.000000000000 0.09215610  0.00092807  0.2344176 0.7000
  1  -4592.2403461783  -0.282020077506 0.15383833  0.00094155  0.1560056 0.7000
                               ***Turning on DIIS***
  2  -4592.3853265895  -0.144980411172 0.10875267  0.00059377  0.1091626 0.7000
  3  -4592.4650070871  -0.079680497631 0.14257866  0.00092041  0.0772152 0.0000
  4  -4592.6536656384  -0.188658551336 0.09787747  0.00051581  0.0146165 0.0000
  5  -4592.6592181101  -0.005552471635 0.01760065  0.00010711  0.0096444 0.0000
  6  -4592.6603516030  -0.001133492987 0.00234779  0.00004476  0.0024834 0.0000
  7  -4592.6605451007  -0.000193497620 0.00140509  0.00002186  0.0013372 0.0000
  8  -4592.6606082150  -0.000063114312 0.00152252  0.00001571  0.0011111 0.0000
  9  -4592.6606439554  -0.000035740419 0.00268714  0.00002224  0.0007496 0.0000
               *** Restarting incremental Fock matrix formation ***
                                   *** Resetting DIIS ***
 10  -4592.6606837553  -0.000039799933 0.00170724  0.00001516  0.0007433 0.0000
 11  -4592.6606556348   0.000028120481 0.00034706  0.00000389  0.0020898 0.0000
 12  -4592.6606897446  -0.000034109726 0.00060188  0.00000613  0.0008852 0.0000
 13  -4592.6606969466  -0.000007202005 0.00049161  0.00000393  0.0002834 0.0000
 14  -4592.6606994559  -0.000002509342 0.00024338  0.00000249  0.0002081 0.0000
 15  -4592.6607002024  -0.000000746469 0.00034259  0.00000213  0.0001323 0.0000
 16  -4592.6607004763  -0.000000273924 0.00027538  0.00000163  0.0000737 0.0000
 17  -4592.6607006680  -0.000000191668 0.00006982  0.00000059  0.0000153 0.0000
 18  -4592.6607004995   0.000000168507 0.00002795  0.00000040  0.0000254 0.0000
 19  -4592.6607006376  -0.000000138085 0.00001663  0.00000015  0.0000310 0.0000
                 **** Energy Check signals convergence ****

               *****************************************************
               *                     SUCCESS                       *
               *           SCF CONVERGED AFTER  20 CYCLES          *
               *****************************************************

Old exchange energy                            =    -61.743981681 Eh
New exchange energy                            =    -61.743940437 Eh
Exchange energy change after final integration =      0.000041244 Eh
Total energy after final integration           =  -4592.660659417 Eh
Final COS-X integration done in                =    24.978 sec

----------------
TOTAL SCF ENERGY
----------------

Total Energy       :        -4592.66065942 Eh         -124972.65003 eV

Components:
Nuclear Repulsion  :         3211.71909635 Eh           87395.31970 eV
Electronic Energy  :        -7804.37975577 Eh         -212367.96973 eV
One Electron Energy:       -12786.99019528 Eh         -347951.69274 eV
Two Electron Energy:         4982.61043952 Eh          135583.72300 eV
Max COSX asymmetry :            0.00000663 Eh               0.00018 eV

Virial components:
Potential Energy   :        -9173.53905934 Eh         -249624.68848 eV
Kinetic Energy     :         4580.87839992 Eh          124652.03845 eV
Virial Ratio       :            2.00257205


DFT components:
N(Alpha)           :      116.999942364444 electrons
N(Beta)            :      115.999944964236 electrons
N(Total)           :      232.999887328679 electrons
E(X)               :     -245.428746112075 Eh       
E(C)               :      -10.622701606431 Eh       
E(XC)              :     -256.051447718505 Eh       
DFET-embed. en.    :        0.000000000000 Eh       

---------------
SCF CONVERGENCE
---------------

  Last Energy change         ...   -2.3700e-08  Tolerance :   1.0000e-06
  Last MAX-Density change    ...    0.0000e+00  Tolerance :   1.0000e-05
  Last RMS-Density change    ...    0.0000e+00  Tolerance :   1.0000e-06
  Last DIIS Error            ...    1.0282e-05  Tolerance :   1.0000e-06

             **** THE GBW FILE WAS UPDATED (input_74.gbw) ****
             **** DENSITY input_74.scfp WAS UPDATED ****
             **** ENERGY FILE WAS UPDATED (input_74.en.tmp) ****
----------------------
UHF SPIN CONTAMINATION
----------------------

Warning: in a DFT calculation there is little theoretical justification to 
         calculate <S**2> as in Hartree-Fock theory. We will do it anyways
         but you should keep in mind that the values have only limited relevance

Expectation value of <S**2>     :     0.764876
Ideal value S*(S+1) for S=0.5   :     0.750000
Deviation                       :     0.014876

             **** THE GBW FILE WAS UPDATED (input_74.gbw) ****
             **** DENSITY input_74.scfp WAS UPDATED ****
----------------
ORBITAL ENERGIES
----------------
                 SPIN UP ORBITALS
  NO   OCC          E(Eh)            E(eV) 
   0   1.0000    -196.640915     -5350.8713 
   1   1.0000     -88.677725     -2413.0436 
   2   1.0000     -88.677715     -2413.0433 
   3   1.0000     -88.676718     -2413.0162 
   4   1.0000     -88.676636     -2413.0140 
   5   1.0000     -88.613376     -2411.2926 
   6   1.0000     -88.613327     -2411.2912 
   7   1.0000     -88.612414     -2411.2664 
   8   1.0000     -88.612305     -2411.2634 
   9   1.0000     -22.016706      -599.1050 
  10   1.0000     -18.858006      -513.1524 
  11   1.0000     -18.523528      -504.0508 
  12   1.0000     -18.517756      -503.8938 
  13   1.0000     -18.517721      -503.8928 
  14   1.0000     -10.018124      -272.6070 
  15   1.0000     -10.018104      -272.6065 
  16   1.0000     -10.016756      -272.5698 
  17   1.0000     -10.016744      -272.5695 
  18   1.0000     -10.015915      -272.5469 
  19   1.0000     -10.012346      -272.4498 
  20   1.0000      -9.994038      -271.9516 
  21   1.0000      -9.993407      -271.9344 
  22   1.0000      -9.991635      -271.8862 
  23   1.0000      -9.990847      -271.8648 
  24   1.0000      -7.731352      -210.3808 
  25   1.0000      -7.731341      -210.3805 
  26   1.0000      -7.730446      -210.3561 
  27   1.0000      -7.730385      -210.3545 
  28   1.0000      -7.667856      -208.6530 
  29   1.0000      -7.667815      -208.6519 
  30   1.0000      -7.666779      -208.6237 
  31   1.0000      -7.666693      -208.6213 
  32   1.0000      -5.696621      -155.0129 
  33   1.0000      -5.696615      -155.0128 
  34   1.0000      -5.695574      -154.9845 
  35   1.0000      -5.695519      -154.9830 
  36   1.0000      -5.692720      -154.9068 
  37   1.0000      -5.692718      -154.9067 
  38   1.0000      -5.691747      -154.8803 
  39   1.0000      -5.691678      -154.8784 
  40   1.0000      -5.686042      -154.7251 
  41   1.0000      -5.686037      -154.7249 
  42   1.0000      -5.685370      -154.7068 
  43   1.0000      -5.685307      -154.7051 
  44   1.0000      -5.632650      -153.2722 
  45   1.0000      -5.632596      -153.2707 
  46   1.0000      -5.631679      -153.2458 
  47   1.0000      -5.631580      -153.2431 
  48   1.0000      -5.626276      -153.0988 
  49   1.0000      -5.626237      -153.0977 
  50   1.0000      -5.625914      -153.0889 
  51   1.0000      -5.625879      -153.0879 
  52   1.0000      -5.625236      -153.0705 
  53   1.0000      -5.625151      -153.0681 
  54   1.0000      -5.624712      -153.0562 
  55   1.0000      -5.624622      -153.0537 
  56   1.0000      -2.410409       -65.5906 
  57   1.0000      -1.451768       -39.5046 
  58   1.0000      -1.440193       -39.1896 
  59   1.0000      -1.439111       -39.1602 
  60   1.0000      -0.646247       -17.5853 
  61   1.0000      -0.641956       -17.4685 
  62   1.0000      -0.618984       -16.8434 
  63   1.0000      -0.596037       -16.2190 
  64   1.0000      -0.591184       -16.0869 
  65   1.0000      -0.577783       -15.7223 
  66   1.0000      -0.575163       -15.6510 
  67   1.0000      -0.493596       -13.4314 
  68   1.0000      -0.488478       -13.2922 
  69   1.0000      -0.487147       -13.2559 
  70   1.0000      -0.486736       -13.2448 
  71   1.0000      -0.423900       -11.5349 
  72   1.0000      -0.420241       -11.4353 
  73   1.0000      -0.416932       -11.3453 
  74   1.0000      -0.401015       -10.9122 
  75   1.0000      -0.380651       -10.3580 
  76   1.0000      -0.364504        -9.9187 
  77   1.0000      -0.309320        -8.4170 
  78   1.0000      -0.299878        -8.1601 
  79   1.0000      -0.276290        -7.5182 
  80   1.0000      -0.269200        -7.3253 
  81   1.0000      -0.264319        -7.1925 
  82   1.0000      -0.257573        -7.0089 
  83   1.0000      -0.245745        -6.6871 
  84   1.0000      -0.241040        -6.5590 
  85   1.0000      -0.198743        -5.4081 
  86   1.0000      -0.197400        -5.3715 
  87   1.0000      -0.194027        -5.2797 
  88   1.0000      -0.183330        -4.9887 
  89   1.0000      -0.177004        -4.8165 
  90   1.0000      -0.175609        -4.7786 
  91   1.0000      -0.156817        -4.2672 
  92   1.0000      -0.150192        -4.0869 
  93   1.0000      -0.149109        -4.0575 
  94   1.0000      -0.142831        -3.8866 
  95   1.0000      -0.140370        -3.8197 
  96   1.0000      -0.135616        -3.6903 
  97   1.0000      -0.097736        -2.6595 
  98   1.0000      -0.097594        -2.6557 
  99   1.0000      -0.089152        -2.4259 
 100   1.0000      -0.082336        -2.2405 
 101   1.0000      -0.082257        -2.2383 
 102   1.0000      -0.080963        -2.2031 
 103   1.0000      -0.069564        -1.8929 
 104   1.0000      -0.050793        -1.3821 
 105   1.0000      -0.038884        -1.0581 
 106   1.0000      -0.038786        -1.0554 
 107   1.0000      -0.036780        -1.0008 
 108   1.0000      -0.032745        -0.8910 
 109   1.0000      -0.014091        -0.3834 
 110   1.0000      -0.005285        -0.1438 
 111   1.0000      -0.003990        -0.1086 
 112   1.0000       0.005384         0.1465 
 113   1.0000       0.009888         0.2691 
 114   1.0000       0.015489         0.4215 
 115   1.0000       0.032901         0.8953 
 116   1.0000       0.059127         1.6089 
 117   0.0000       0.186791         5.0828 
 118   0.0000       0.187533         5.1030 
 119   0.0000       0.189774         5.1640 
 120   0.0000       0.194715         5.2985 
 121   0.0000       0.210475         5.7273 
 122   0.0000       0.212191         5.7740 
 123   0.0000       0.217667         5.9230 
 124   0.0000       0.220273         5.9939 
 125   0.0000       0.228761         6.2249 
 126   0.0000       0.230785         6.2800 
 127   0.0000       0.233733         6.3602 
 128   0.0000       0.236485         6.4351 
 129   0.0000       0.242829         6.6077 
 130   0.0000       0.245562         6.6821 
 131   0.0000       0.246159         6.6983 
 132   0.0000       0.251234         6.8364 
 133   0.0000       0.254073         6.9137 
 134   0.0000       0.255246         6.9456 
 135   0.0000       0.259413         7.0590 
 136   0.0000       0.270278         7.3546 
 137   0.0000       0.273514         7.4427 
 138   0.0000       0.275074         7.4851 
 139   0.0000       0.278176         7.5696 
 140   0.0000       0.282287         7.6814 
 141   0.0000       0.283031         7.7017 
 142   0.0000       0.285395         7.7660 
 143   0.0000       0.292048         7.9470 
 144   0.0000       0.292123         7.9491 
 145   0.0000       0.307066         8.3557 
 146   0.0000       0.313404         8.5282 
 147   0.0000       0.315766         8.5924 
 148   0.0000       0.322567         8.7775 
 149   0.0000       0.339658         9.2426 
 150   0.0000       0.347011         9.4427 
 151   0.0000       0.359751         9.7893 
 152   0.0000       0.368140        10.0176 
 153   0.0000       0.380500        10.3539 
 154   0.0000       0.385539        10.4910 
 155   0.0000       0.387989        10.5577 
 156   0.0000       0.395464        10.7611 
 157   0.0000       0.398093        10.8327 
 158   0.0000       0.402994        10.9660 
 159   0.0000       0.409796        11.1511 
 160   0.0000       0.421602        11.4724 
 161   0.0000       0.425685        11.5835 
 162   0.0000       0.429382        11.6841 
 163   0.0000       0.430497        11.7144 
 164   0.0000       0.440896        11.9974 
 165   0.0000       0.450937        12.2706 
 166   0.0000       0.452111        12.3026 
 167   0.0000       0.453757        12.3474 
 168   0.0000       0.458546        12.4777 
 169   0.0000       0.460703        12.5364 
 170   0.0000       0.464034        12.6270 
 171   0.0000       0.476379        12.9629 
 172   0.0000       0.480375        13.0717 
 173   0.0000       0.493326        13.4241 
 174   0.0000       0.493830        13.4378 
 175   0.0000       0.499112        13.5815 
 176   0.0000       0.500234        13.6121 
 177   0.0000       0.502199        13.6655 
 178   0.0000       0.507930        13.8215 
 179   0.0000       0.509587        13.8666 
 180   0.0000       0.511047        13.9063 
 181   0.0000       0.519042        14.1238 
 182   0.0000       0.521864        14.2007 
 183   0.0000       0.531003        14.4493 
 184   0.0000       0.532542        14.4912 
 185   0.0000       0.548195        14.9171 
 186   0.0000       0.549532        14.9535 
 187   0.0000       0.550467        14.9790 
 188   0.0000       0.553154        15.0521 
 189   0.0000       0.554758        15.0957 
 190   0.0000       0.555130        15.1058 
 191   0.0000       0.561647        15.2832 
 192   0.0000       0.570636        15.5278 
 193   0.0000       0.572766        15.5857 
 194   0.0000       0.574003        15.6194 
 195   0.0000       0.575718        15.6661 
 196   0.0000       0.578225        15.7343 
 197   0.0000       0.582046        15.8383 
 198   0.0000       0.584561        15.9067 
 199   0.0000       0.586529        15.9603 
 200   0.0000       0.593473        16.1492 
 201   0.0000       0.598353        16.2820 
 202   0.0000       0.604155        16.4399 
 203   0.0000       0.613968        16.7069 
 204   0.0000       0.616036        16.7632 
 205   0.0000       0.617552        16.8044 
 206   0.0000       0.623945        16.9784 
 207   0.0000       0.625550        17.0221 
 208   0.0000       0.627788        17.0830 
 209   0.0000       0.633185        17.2298 
 210   0.0000       0.638169        17.3654 
 211   0.0000       0.641432        17.4542 
 212   0.0000       0.643169        17.5015 
 213   0.0000       0.652800        17.7636 
 214   0.0000       0.654938        17.8218 
 215   0.0000       0.656859        17.8740 
 216   0.0000       0.659290        17.9402 
 217   0.0000       0.663872        18.0649 
 218   0.0000       0.667326        18.1589 
 219   0.0000       0.674457        18.3529 
 220   0.0000       0.680081        18.5059 
 221   0.0000       0.682110        18.5612 
 222   0.0000       0.698476        19.0065 
 223   0.0000       0.700444        19.0600 
 224   0.0000       0.712401        19.3854 
 225   0.0000       0.725108        19.7312 
 226   0.0000       0.725435        19.7401 
 227   0.0000       0.733160        19.9503 
 228   0.0000       0.742630        20.2080 
 229   0.0000       0.752702        20.4821 
 230   0.0000       0.761879        20.7318 
 231   0.0000       0.778150        21.1745 
 232   0.0000       0.793051        21.5800 
 233   0.0000       0.798960        21.7408 
 234   0.0000       0.813418        22.1342 
 235   0.0000       0.837432        22.7877 
 236   0.0000       0.856652        23.3107 
 237   0.0000       0.869273        23.6541 
 238   0.0000       0.872178        23.7332 
 239   0.0000       0.882917        24.0254 
 240   0.0000       0.890810        24.2402 
 241   0.0000       0.903799        24.5936 
 242   0.0000       0.911807        24.8115 
 243   0.0000       0.912384        24.8272 
 244   0.0000       0.912814        24.8389 
 245   0.0000       0.928905        25.2768 
 246   0.0000       0.935141        25.4465 
 247   0.0000       0.953415        25.9437 
 248   0.0000       0.961827        26.1726 
 249   0.0000       0.976922        26.5834 
 250   0.0000       0.978484        26.6259 
 251   0.0000       0.979269        26.6473 
 252   0.0000       0.983713        26.7682 
 253   0.0000       0.986936        26.8559 
 254   0.0000       0.993345        27.0303 
 255   0.0000       1.002518        27.2799 
 256   0.0000       1.011058        27.5123 
 257   0.0000       1.014069        27.5942 
 258   0.0000       1.026865        27.9424 
 259   0.0000       1.045712        28.4553 
 260   0.0000       1.056226        28.7414 
 261   0.0000       1.058089        28.7921 
 262   0.0000       1.059575        28.8325 
 263   0.0000       1.068303        29.0700 
 264   0.0000       1.082358        29.4524 
 265   0.0000       1.097379        29.8612 
 266   0.0000       1.101007        29.9599 
 267   0.0000       1.109209        30.1831 
 268   0.0000       1.120582        30.4926 
 269   0.0000       1.124654        30.6034 
 270   0.0000       1.129237        30.7281 
 271   0.0000       1.130497        30.7624 
 272   0.0000       1.131294        30.7841 
 273   0.0000       1.133716        30.8500 
 274   0.0000       1.140081        31.0232 
 275   0.0000       1.146842        31.2071 
 276   0.0000       1.156001        31.4564 
 277   0.0000       1.164562        31.6893 
 278   0.0000       1.181785        32.1580 
 279   0.0000       1.192539        32.4506 
 280   0.0000       1.205164        32.7942 
 281   0.0000       1.228625        33.4326 
 282   0.0000       1.241814        33.7915 
 283   0.0000       1.272752        34.6333 
 284   0.0000       1.274083        34.6696 
 285   0.0000       1.287507        35.0349 
 286   0.0000       1.302221        35.4352 
 287   0.0000       1.302575        35.4449 
 288   0.0000       1.314931        35.7811 
 289   0.0000       1.335668        36.3454 
 290   0.0000       1.349393        36.7189 
 291   0.0000       1.368700        37.2442 
 292   0.0000       1.371360        37.3166 
 293   0.0000       1.401313        38.1317 
 294   0.0000       1.416615        38.5481 
 295   0.0000       1.426589        38.8195 
 296   0.0000       1.430790        38.9338 
 297   0.0000       1.431720        38.9591 
 298   0.0000       1.442891        39.2631 
 299   0.0000       1.460719        39.7482 
 300   0.0000       1.466927        39.9171 
 301   0.0000       1.474517        40.1236 
 302   0.0000       1.486908        40.4608 
 303   0.0000       1.491815        40.5944 
 304   0.0000       1.497371        40.7455 
 305   0.0000       1.498632        40.7798 
 306   0.0000       1.514741        41.2182 
 307   0.0000       1.528093        41.5815 
 308   0.0000       1.537357        41.8336 
 309   0.0000       1.542250        41.9668 
 310   0.0000       1.565363        42.5957 
 311   0.0000       1.575416        42.8692 
 312   0.0000       1.580069        42.9959 
 313   0.0000       1.589843        43.2618 
 314   0.0000       1.596794        43.4510 
 315   0.0000       1.611211        43.8433 
 316   0.0000       1.625823        44.2409 
 317   0.0000       1.651354        44.9356 
 318   0.0000       1.652583        44.9691 
 319   0.0000       1.658913        45.1413 
 320   0.0000       1.658996        45.1436 
 321   0.0000       1.672261        45.5045 
 322   0.0000       1.681317        45.7510 
 323   0.0000       1.686066        45.8802 
 324   0.0000       1.696098        46.1532 
 325   0.0000       1.699461        46.2447 
 326   0.0000       1.723677        46.9036 
 327   0.0000       1.742371        47.4123 
 328   0.0000       1.749664        47.6108 
 329   0.0000       1.751414        47.6584 
 330   0.0000       1.766922        48.0804 
 331   0.0000       1.769054        48.1384 
 332   0.0000       1.772050        48.2199 
 333   0.0000       1.787315        48.6353 
 334   0.0000       1.789754        48.7017 
 335   0.0000       1.803709        49.0814 
 336   0.0000       1.817699        49.4621 
 337   0.0000       1.825404        49.6718 
 338   0.0000       1.834440        49.9176 
 339   0.0000       1.839596        50.0580 
 340   0.0000       1.843301        50.1588 
 341   0.0000       1.846358        50.2420 
 342   0.0000       1.846781        50.2535 
 343   0.0000       1.857001        50.5316 
 344   0.0000       1.865660        50.7672 
 345   0.0000       1.872074        50.9417 
 346   0.0000       1.879448        51.1424 
 347   0.0000       1.914043        52.0838 
 348   0.0000       1.924354        52.3643 
 349   0.0000       1.926553        52.4242 
 350   0.0000       1.928403        52.4745 
 351   0.0000       1.941999        52.8445 
 352   0.0000       1.944235        52.9053 
 353   0.0000       1.971723        53.6533 
 354   0.0000       1.984008        53.9876 
 355   0.0000       1.990163        54.1551 
 356   0.0000       2.001737        54.4700 
 357   0.0000       2.010334        54.7040 
 358   0.0000       2.018437        54.9245 
 359   0.0000       2.028657        55.2026 
 360   0.0000       2.028925        55.2099 
 361   0.0000       2.037322        55.4383 
 362   0.0000       2.058421        56.0125 
 363   0.0000       2.069145        56.3043 
 364   0.0000       2.076779        56.5120 
 365   0.0000       2.086619        56.7798 
 366   0.0000       2.109214        57.3946 
 367   0.0000       2.127968        57.9050 
 368   0.0000       2.131071        57.9894 
 369   0.0000       2.137716        58.1702 
 370   0.0000       2.142991        58.3138 
 371   0.0000       2.153695        58.6050 
 372   0.0000       2.160947        58.8024 
 373   0.0000       2.176370        59.2220 
 374   0.0000       2.179766        59.3145 
 375   0.0000       2.181384        59.3585 
 376   0.0000       2.198999        59.8378 
 377   0.0000       2.206080        60.0305 
 378   0.0000       2.208291        60.0907 
 379   0.0000       2.223265        60.4981 
 380   0.0000       2.233038        60.7641 
 381   0.0000       2.238923        60.9242 
 382   0.0000       2.240536        60.9681 
 383   0.0000       2.246029        61.1175 
 384   0.0000       2.256776        61.4100 
 385   0.0000       2.266000        61.6610 
 386   0.0000       2.267294        61.6962 
 387   0.0000       2.286827        62.2277 
 388   0.0000       2.288436        62.2715 
 389   0.0000       2.304532        62.7095 
 390   0.0000       2.314072        62.9691 
 391   0.0000       2.314676        62.9855 
 392   0.0000       2.340801        63.6964 
 393   0.0000       2.354411        64.0668 
 394   0.0000       2.357325        64.1461 
 395   0.0000       2.358179        64.1693 
 396   0.0000       2.372624        64.5624 
 397   0.0000       2.399308        65.2885 
 398   0.0000       2.404822        65.4385 
 399   0.0000       2.409621        65.5691 
 400   0.0000       2.435916        66.2846 
 401   0.0000       2.437287        66.3219 
 402   0.0000       2.465626        67.0931 
 403   0.0000       2.477307        67.4110 
 404   0.0000       2.479561        67.4723 
 405   0.0000       2.499969        68.0276 
 406   0.0000       2.502943        68.1085 
 407   0.0000       2.531968        68.8983 
 408   0.0000       2.538402        69.0734 
 409   0.0000       2.544842        69.2487 
 410   0.0000       2.555103        69.5279 
 411   0.0000       2.593686        70.5778 
 412   0.0000       2.594265        70.5935 
 413   0.0000       2.598595        70.7114 
 414   0.0000       2.609995        71.0216 
 415   0.0000       2.636850        71.7523 
 416   0.0000       2.639862        71.8343 
 417   0.0000       2.642170        71.8971 
 418   0.0000       2.655040        72.2473 
 419   0.0000       2.684393        73.0460 
 420   0.0000       2.708375        73.6986 
 421   0.0000       2.724923        74.1489 
 422   0.0000       2.743431        74.6526 
 423   0.0000       2.745109        74.6982 
 424   0.0000       2.751264        74.8657 
 425   0.0000       2.761217        75.1365 
 426   0.0000       2.789334        75.9016 
 427   0.0000       2.792118        75.9774 
 428   0.0000       2.792957        76.0002 
 429   0.0000       2.805396        76.3387 
 430   0.0000       2.841906        77.3322 
 431   0.0000       2.846447        77.4558 
 432   0.0000       2.865922        77.9857 
 433   0.0000       2.867803        78.0369 
 434   0.0000       2.875008        78.2330 
 435   0.0000       2.889578        78.6294 
 436   0.0000       2.908144        79.1346 
 437   0.0000       2.911127        79.2158 
 438   0.0000       2.916044        79.3496 
 439   0.0000       2.922114        79.5148 
 440   0.0000       2.930725        79.7491 
 441   0.0000       2.948752        80.2396 
 442   0.0000       2.949689        80.2651 
 443   0.0000       2.964733        80.6745 
 444   0.0000       2.974861        80.9501 
 445   0.0000       3.012013        81.9610 
 446   0.0000       3.013257        81.9949 
 447   0.0000       3.016946        82.0953 
 448   0.0000       3.027061        82.3705 
 449   0.0000       3.041200        82.7553 
 450   0.0000       3.065742        83.4231 
 451   0.0000       3.174798        86.3906 
 452   0.0000       3.196910        86.9923 
 453   0.0000       3.234112        88.0047 
 454   0.0000       3.269437        88.9659 
 455   0.0000       3.376657        91.8835 
 456   0.0000       3.394909        92.3802 
 457   0.0000       3.398767        92.4852 
 458   0.0000       3.421476        93.1031 
 459   0.0000       3.437513        93.5395 
 460   0.0000       3.444155        93.7202 
 461   0.0000       3.451374        93.9167 
 462   0.0000       3.515885        95.6721 
 463   0.0000       3.524562        95.9082 
 464   0.0000       3.525724        95.9398 
 465   0.0000       3.565024        97.0092 
 466   0.0000       3.570921        97.1697 
 467   0.0000       3.590389        97.6995 
 468   0.0000       3.600014        97.9614 
 469   0.0000       3.801534       103.4450 
 470   0.0000       3.843585       104.5893 
 471   0.0000       3.860888       105.0601 
 472   0.0000       3.993930       108.6804 
 473   0.0000       4.215136       114.6997 
 474   0.0000       4.541787       123.5883 
 475   0.0000       4.558843       124.0524 
 476   0.0000       4.562210       124.1441 
 477   0.0000       4.590399       124.9111 
 478   0.0000       4.618517       125.6762 
 479   0.0000       4.618869       125.6858 
 480   0.0000       5.201543       141.5412 
 481   0.0000       7.007564       190.6855 
 482   0.0000       7.054543       191.9639 
 483   0.0000       7.058606       192.0744 
 484   0.0000      18.703551       508.9495 
 485   0.0000      18.777936       510.9736 
 486   0.0000      18.991099       516.7741 
 487   0.0000      19.014414       517.4085 
 488   0.0000      19.048335       518.3316 
 489   0.0000      19.049845       518.3726 
 490   0.0000      19.249368       523.8019 
 491   0.0000      19.331079       526.0254 
 492   0.0000      19.778448       538.1989 
 493   0.0000      21.668355       589.6259 
 494   0.0000      21.703217       590.5746 
 495   0.0000      22.052441       600.0774 
[...]
Total number of batches                      ...      238
Average number of points per batch           ...       58
Average number of grid points per atom       ...      437

Memory available               ... 849.9 MB
Memory needed per perturbation ...  34.9 MB
Perturbations treated per batch... 3
Number of batches              ... 1
     CP-SCF ITERATION   0:   4.4878e-02 (   5.5 sec   0/  3 done)
     CP-SCF ITERATION   1:   1.4779e-03 (   5.6 sec   0/  3 done)
     CP-SCF ITERATION   2:   3.9880e-04 (   5.7 sec   3/  3 done)
                    *** THE CP-SCF HAS CONVERGED ***

Forming final perturbed densities           ... done
Transforming perturbed density to AO basis  ... done

 Raw HFC matrix (all values in MHz): 
 -----------------------------------
                -0.4231               0.0307              -0.3279
                 0.0305              -0.4682              -0.1820
                -0.3276              -0.1813               0.7679

 A(FC)          -0.0403              -0.0403              -0.0403
 A(SD)          -0.4458              -0.4796               0.9254
 A(ORB+DIA)      0.0028               0.0026              -0.0080    A(PC) =  -0.0009
 A(ORB)          0.0029               0.0027              -0.0082    A(PC) =  -0.0009
 A(DIA)         -0.0000              -0.0001               0.0002    A(PC) =   0.0000
             ----------           ----------           ----------
 A(Tot)         -0.4833              -0.5173               0.8772    A(iso)=   -0.0411
 Orientation: 
  X           0.5502169            0.7982068           -0.2452084
  Y          -0.8347049            0.5338481           -0.1351810
  Z           0.0230016            0.2790556            0.9599994

Notes:  (1) The A matrix conforms to the "SAI" spin Hamiltonian convention.
        (2) Tensor is right-handed.

 Raw EFG matrix (all values in a.u.**-3):
 -----------------------------------
            -0.1046      -0.1160       0.0245
            -0.1160       0.2339      -0.0693
             0.0245      -0.0693      -0.1293

 V(El)       0.6417       0.4251      -1.0668
 V(Nuc)     -0.7802      -0.5696       1.3498
         ----------   ----------   ----------
 V(Tot)     -0.1385      -0.1445       0.2830 
 Orientation: 
  X       0.7415729   -0.6037634    0.2924711
  Y       0.3388148   -0.0392163   -0.9400354
  Z       0.5790286    0.7961984    0.1754822

Note: Tensor is right-handed


 Quadrupole tensor eigenvalues (in MHz;Q= 0.0029 I=  1.0)
  e**2qQ            =     0.190014 MHz 
  e**2qQ/(4I*(2I-1))=     0.047504 MHz 
  eta               =     0.021026
  NOTE: the diagonal representation of the SH term I*Q*I = e**2qQ/(4I(2I-1))*[-(1-eta),-(1+eta),2]

 RHO(0)=      0.439434303 a.u.**-3

 -----------------------------------------------------------
 Nucleus  31H : A:ISTP=    1 I=  0.5 P=533.5514 MHz/au**3
                Q:ISTP=    2 I=  1.0 Q=  0.0029 barn     
 -----------------------------------------------------------
 Solving for nuclear perturbation:
Forming RHS of the CP-SCF equations         ... 
Calc. nucleus orbit integrals (SHARK)       ... done

------------------------------------------------------------------------------
                           ORCA CP-SCF CALCULATION
------------------------------------------------------------------------------

Input orbitals are from        ... input_74.gbw
Input Perturbation             ... input_74.pin.tmp
Wavefunction output            ... input_74.pout.tmp
Perturbation mode              ... Imaginary perturbation
Solver                         ... POPLE
Max. number of iterations      ... 64
Convergence tolerance          ... 1.000e-03
Integral handling              ... Direct
DFT GridXC                     ... 1
COSX GridX                     ... 1
COSX IntAccX                   ... 3.067
COSX Algorithm                 ... Auto
Number of perturbations        ... 3
Number of operators            ... 2
Orbital ranges used for CP-SCF:
 Operator 0:  Orbitals   0...116  to 117...516
 Operator 1:  Orbitals   0...115  to 116...516
Variables per perturbation     ... 93316
DFT calculation                         ... on
XC functional terms                     ... off
Hybrid DFT                              ... on
   Exchange mixing (SCF)                ...  0.200
   Exchange mixing (CP-SCF)             ...  0.200
   GGA exch. scaling(SCF)               ...  0.720
   GGA exch. scaling (CP-SCF)           ...  0.720
   GGA corr. scaling (SCF)              ...  0.810
   GGA corr. scaling (CP-SCF)           ...  0.810

CP-SCF GRID
-----------

General Integration Accuracy     IntAcc      ... 3.467
Radial Grid Type                 RadialGrid  ... OptM3 with GC (2021)
Angular Grid (max. ang.)         AngularGrid ... 1 (Lebedev-50)
Angular grid pruning method      GridPruning ... 4 (adaptive)
Weight generation scheme         WeightScheme... Becke
Basis function cutoff            BFCut       ... 1.0000e-10
Integration weight cutoff        WCut        ... 1.0000e-14
Angular grids for H and He will be reduced by one unit
Partially contracted basis set               ... off
Rotationally invariant grid construction     ... off

Total number of grid points                  ...    31472
Total number of batches                      ...      508
Average number of points per batch           ...       61
Average number of grid points per atom       ...      984

CP-SCF GRIDX
------------

General Integration Accuracy     IntAcc      ... 3.067
Radial Grid Type                 RadialGrid  ... OptM3 with GC (2021)
Angular Grid (max. ang.)         AngularGrid ... 1 (Lebedev-50)
Angular grid pruning method      GridPruning ... 4 (adaptive)
Weight generation scheme         WeightScheme... Becke
Basis function cutoff            BFCut       ... 1.0000e-10
Integration weight cutoff        WCut        ... 1.0000e-14
Angular grids for H and He will be reduced by one unit
Partially contracted basis set               ... on
Rotationally invariant grid construction     ... off

Total number of grid points                  ...    13991
Total number of batches                      ...      238
Average number of points per batch           ...       58
Average number of grid points per atom       ...      437

Memory available               ... 846.7 MB
Memory needed per perturbation ...  34.9 MB
Perturbations treated per batch... 3
Number of batches              ... 1
     CP-SCF ITERATION   0:   4.2139e-02 (   5.5 sec   0/  3 done)
     CP-SCF ITERATION   1:   1.2286e-03 (   5.6 sec   0/  3 done)
     CP-SCF ITERATION   2:   2.2183e-04 (   5.7 sec   3/  3 done)
                    *** THE CP-SCF HAS CONVERGED ***

Forming final perturbed densities           ... done
Transforming perturbed density to AO basis  ... done

 Raw HFC matrix (all values in MHz): 
 -----------------------------------
                -0.2043               0.0701              -0.1865
                 0.0703              -0.1883              -0.2339
                -0.1865              -0.2329               0.3594

 A(FC)          -0.0107              -0.0107              -0.0107
 A(SD)          -0.2511              -0.2655               0.5166
 A(ORB+DIA)      0.0015               0.0019              -0.0042    A(PC) =  -0.0003
 A(ORB)          0.0015               0.0019              -0.0043    A(PC) =  -0.0003
 A(DIA)         -0.0001              -0.0000               0.0001    A(PC) =   0.0000
             ----------           ----------           ----------
 A(Tot)         -0.2604              -0.2744               0.5016    A(iso)=   -0.0110
 Orientation: 
  X           0.9566298           -0.1054007           -0.2715696
  Y           0.0092102            0.9427251           -0.3334436
  Z           0.2911606            0.3164809            0.9028097

Notes:  (1) The A matrix conforms to the "SAI" spin Hamiltonian convention.
        (2) Tensor is right-handed.

 Raw EFG matrix (all values in a.u.**-3):
 -----------------------------------
             0.0945       0.1145      -0.1816
             0.1145      -0.0943      -0.0840
            -0.1816      -0.0840      -0.0003

 V(El)       0.5425       0.8218      -1.3644
 V(Nuc)     -0.6817      -0.9702       1.6519
         ----------   ----------   ----------
 V(Tot)     -0.1392      -0.1484       0.2876 
 Orientation: 
  X       0.4556858    0.4894119    0.7435230
  Y       0.3605790   -0.8651769    0.3484992
  Z       0.8138386    0.1092926   -0.5707205

Note: Tensor is right-handed


 Quadrupole tensor eigenvalues (in MHz;Q= 0.0029 I=  1.0)
  e**2qQ            =     0.193115 MHz 
  e**2qQ/(4I*(2I-1))=     0.048279 MHz 
  eta               =     0.032111
  NOTE: the diagonal representation of the SH term I*Q*I = e**2qQ/(4I(2I-1))*[-(1-eta),-(1+eta),2]

 RHO(0)=      0.442652766 a.u.**-3

 -----------------------------------------------------------
 Nucleus   0V : A:ISTP=   51 I=  3.5 P=140.5173 MHz/au**3
                Q:ISTP=   51 I=  3.5 Q= -0.0430 barn     
 -----------------------------------------------------------
 Solving for nuclear perturbation:
Forming RHS of the CP-SCF equations         ... 
Calc. nucleus orbit integrals (SHARK)       ... done

------------------------------------------------------------------------------
                           ORCA CP-SCF CALCULATION
------------------------------------------------------------------------------

Input orbitals are from        ... input_74.gbw
Input Perturbation             ... input_74.pin.tmp
Wavefunction output            ... input_74.pout.tmp
Perturbation mode              ... Imaginary perturbation
Solver                         ... POPLE
Max. number of iterations      ... 64
Convergence tolerance          ... 1.000e-03
Integral handling              ... Direct
DFT GridXC                     ... 1
COSX GridX                     ... 1
COSX IntAccX                   ... 3.067
COSX Algorithm                 ... Auto
Number of perturbations        ... 3
Number of operators            ... 2
Orbital ranges used for CP-SCF:
 Operator 0:  Orbitals   0...116  to 117...516
 Operator 1:  Orbitals   0...115  to 116...516
Variables per perturbation     ... 93316
DFT calculation                         ... on
XC functional terms                     ... off
Hybrid DFT                              ... on
   Exchange mixing (SCF)                ...  0.200
   Exchange mixing (CP-SCF)             ...  0.200
   GGA exch. scaling(SCF)               ...  0.720
   GGA exch. scaling (CP-SCF)           ...  0.720
   GGA corr. scaling (SCF)              ...  0.810
   GGA corr. scaling (CP-SCF)           ...  0.810

CP-SCF GRID
-----------

General Integration Accuracy     IntAcc      ... 3.467
Radial Grid Type                 RadialGrid  ... OptM3 with GC (2021)
Angular Grid (max. ang.)         AngularGrid ... 1 (Lebedev-50)
Angular grid pruning method      GridPruning ... 4 (adaptive)
Weight generation scheme         WeightScheme... Becke
Basis function cutoff            BFCut       ... 1.0000e-10
Integration weight cutoff        WCut        ... 1.0000e-14
Angular grids for H and He will be reduced by one unit
Partially contracted basis set               ... off
Rotationally invariant grid construction     ... off

Total number of grid points                  ...    31472
Total number of batches                      ...      508
Average number of points per batch           ...       61
Average number of grid points per atom       ...      984

CP-SCF GRIDX
------------

General Integration Accuracy     IntAcc      ... 3.067
Radial Grid Type                 RadialGrid  ... OptM3 with GC (2021)
Angular Grid (max. ang.)         AngularGrid ... 1 (Lebedev-50)
Angular grid pruning method      GridPruning ... 4 (adaptive)
Weight generation scheme         WeightScheme... Becke
Basis function cutoff            BFCut       ... 1.0000e-10
Integration weight cutoff        WCut        ... 1.0000e-14
Angular grids for H and He will be reduced by one unit
Partially contracted basis set               ... on
Rotationally invariant grid construction     ... off

Total number of grid points                  ...    13991
Total number of batches                      ...      238
Average number of points per batch           ...       58
Average number of grid points per atom       ...      437

Memory available               ... 843.6 MB
Memory needed per perturbation ...  34.9 MB
Perturbations treated per batch... 3
Number of batches              ... 1
     CP-SCF ITERATION   0:   1.0714e+01 (   5.9 sec   0/  3 done)
     CP-SCF ITERATION   1:   1.8357e+00 (   5.6 sec   0/  3 done)
     CP-SCF ITERATION   2:   3.1319e-01 (   5.6 sec   0/  3 done)
     CP-SCF ITERATION   3:   3.9331e-02 (   5.7 sec   0/  3 done)
     CP-SCF ITERATION   4:   9.8709e-03 (   5.6 sec   0/  3 done)
     CP-SCF ITERATION   5:   2.1089e-03 (   5.6 sec   0/  3 done)
     CP-SCF ITERATION   6:   3.1335e-04 (   5.6 sec   3/  3 done)
                    *** THE CP-SCF HAS CONVERGED ***

Forming final perturbed densities           ... done
Transforming perturbed density to AO basis  ... done

 Raw HFC matrix (all values in MHz): 
 -----------------------------------
               -81.9249              40.3828              37.9727
                40.3880            -221.2939            -139.5504
                37.9792            -139.5987            -226.1415

 A(FC)        -165.3492            -165.3492            -165.3492
 A(SD)         100.8161              88.5376            -189.3537
 A(ORB+DIA)     -6.5273              -7.6627             -19.1227    A(PC) = -11.1042
 A(ORB)         -6.5269              -7.6632             -19.1226    A(PC) = -11.1042
 A(DIA)         -0.0004               0.0005              -0.0001    A(PC) =  -0.0000
             ----------           ----------           ----------
 A(Tot)        -71.0604             -84.4743            -373.8256    A(iso)= -176.4535
 Orientation: 
  X           0.9695291           -0.1589005           -0.1864507
  Y           0.2443493            0.6816693            0.6896524
  Z           0.0175117           -0.7141972            0.6997255

Notes:  (1) The A matrix conforms to the "SAI" spin Hamiltonian convention.
        (2) Tensor is right-handed.

 Raw EFG matrix (all values in a.u.**-3):
 -----------------------------------
            -0.0858      -0.0400      -0.0621
            -0.0400       0.0432       0.2445
            -0.0621       0.2445       0.0426

 V(El)       0.1405      -0.4680       0.3275
 V(Nuc)     -0.2375       0.2641      -0.0266
         ----------   ----------   ----------
 V(Tot)     -0.0970      -0.2039       0.3009 
 Orientation: 
  X       0.9722789   -0.1446565   -0.1837071
  Y       0.2324126    0.6840762    0.6913929
  Z       0.0256552   -0.7149225    0.6987328

Note: Tensor is right-handed


 Quadrupole tensor eigenvalues (in MHz;Q=-0.0430 I=  3.5)
  e**2qQ            =    -3.040343 MHz 
  e**2qQ/(4I*(2I-1))=    -0.036195 MHz 
  eta               =     0.355403
  NOTE: the diagonal representation of the SH term I*Q*I = e**2qQ/(4I(2I-1))*[-(1-eta),-(1+eta),2]

 RHO(0)=   8115.216133940 a.u.**-3


--------------------------------------------------------------------------------
----------------------------------------------------------------------------
                           ORCA EULER ANGLE PROGRAM
----------------------------------------------------------------------------

Only g-tensor available        -->  using g-tensor as reference tensor

Reference tensor               ...  g

g-tensor ordering              ...  |g_min> --> |gx>
                                    |g_mid> --> |gy>
                                    |g_max> --> |gz>

A- and EFG-tensor ordering     ...  the axes |Ax>, |Qx>, |Ay>, etc. are assigned
                                    such that the Euler rotation is minimal. You
                                    can find the respective eigenvalues as Ax,
                                    EFGx, Ay, etc. in the tables below.
                                    The relation of |Ax>, |Ay>,  etc. to Amin, Amid, etc.
                                    (as printed in the ORCA EPR/NMR CALCULATION Output)
                                    is obtained in the detailed printout.

Euler rotation around          ...  z - y - z
   First rotation              -->  by alpha around z
   Second rotation             -->  by beta around y'
   Third rotation              -->  by gamma around z''
   Positive / Negative angle   -->  clockwise / counterclockwise rotation

Plot EFG-tensors                    (-)
Plot HFC-tensors                    (-)
Detailed Printout                   (-)

-------------------------------------------------------------------------
          Euler rotation of hyperfine tensor to g-tensor
-------------------------------------------------------------------------

-------------------------------------------------------------------
 Atom  |   Alpha    Beta    Gamma   |   Ax       Ay       Az 
       |          [degrees]         |           [MHz]         
-------------------------------------------------------------------
 19H      -38.9     22.5     -3.5      -0.52     0.94    -0.56
 20H     -119.1     22.1     93.7      -0.27     0.48    -0.26
 21H     -139.8      0.7    104.7      -0.11     0.53    -0.11
 22H     -154.1      1.3    137.2      -0.25     0.51    -0.26
 23H       62.3     20.6    -87.8      -0.27     0.49    -0.26
 24H      144.5     22.8    173.4      -0.53     0.93    -0.56
 26H      112.1     20.5    -84.7      -0.27     0.50    -0.26
 27H       36.7     25.0      6.4      -0.48     0.87    -0.52
 28H       -5.6      5.0     25.8      -0.20     0.43    -0.20
 29H      -20.7      1.1     52.5      -0.10     0.45    -0.11
 30H     -141.0     24.5   -175.7      -0.48     0.88    -0.52
 31H      -67.7     21.4     95.4      -0.27     0.50    -0.26
  0V      -88.9      0.6     89.4    -373.83   -84.47   -71.06
-------------------------------------------------------------------


-------------------------------------------------------------------------------
    Euler rotation of Electric Field Gradient (EFG) tensor to g-tensor
-------------------------------------------------------------------------------

-------------------------------------------------------------------
 Atom  |   Alpha    Beta    Gamma  |   EFGx     EFGy     EFGz
       |          [degrees]        |         [a.u.**-3]       
-------------------------------------------------------------------
 19H     -172.0     33.0   -155.0     -0.14     0.28    -0.14
 20H      131.5     41.5   -109.6     -0.14    -0.14     0.28
 21H      -93.7      0.6     97.7      0.21    -0.11    -0.10
 22H     -137.5      0.6     97.1      0.20    -0.11    -0.09
 23H      -49.1     42.6     70.7     -0.14    -0.14     0.28
 24H        6.0     33.3     26.6     -0.14     0.28    -0.14
 26H     -152.4     37.6    118.6     -0.14    -0.15     0.29
 27H       -7.4     35.9    -29.2     -0.14     0.28    -0.14
 28H      -90.3      0.7     64.1     -0.13     0.25    -0.12
 29H      -91.7      0.7     64.0      0.24    -0.13    -0.12
 30H      175.3     36.0    148.7     -0.14     0.28    -0.14
 31H       25.5     36.7    -59.7     -0.14    -0.15     0.29
  0V      -82.5      1.4     83.0      0.30    -0.20    -0.10
-------------------------------------------------------------------


Maximum memory used throughout the entire EPRNMR-calculation: 245.0 MB

Timings for individual modules:

Sum of individual times         ...     2607.041 sec (=  43.451 min)
GTO integral calculation        ...        1.254 sec (=   0.021 min)   0.0 %
Spin-Orbit-Coupling Matrices    ...       11.132 sec (=   0.186 min)   0.4 %
SCF iterations                  ...      232.607 sec (=   3.877 min)   8.9 %
EPR/NMR calculation             ...     2362.047 sec (=  39.367 min)  90.6 %
                             ****ORCA TERMINATED NORMALLY****
TOTAL RUN TIME: 0 days 0 hours 43 minutes 28 seconds 185 msec
