
                                 *****************
                                 * O   R   C   A *
                                 *****************

                                            #,                                       
                                            ###                                      
                                            ####                                     
                                            #####                                    
                                            ######                                   
                                           ########,                                 
                                     ,,################,,,,,                         
                               ,,#################################,,                 
                          ,,##########################################,,             
                       ,#########################################, ''#####,          
                    ,#############################################,,   '####,        
                  ,##################################################,,,,####,       
                ,###########''''           ''''###############################       
              ,#####''   ,,,,##########,,,,          '''####'''          '####       
            ,##' ,,,,###########################,,,                        '##       
           ' ,,###''''                  '''############,,,                           
         ,,##''                                '''############,,,,        ,,,,,,###''
      ,#''                                            '''#######################'''  
     '                                                          ''''####''''         
             ,#######,   #######,   ,#######,      ##                                
            ,#'     '#,  ##    ##  ,#'     '#,    #''#        ######   ,####,        
            ##       ##  ##   ,#'  ##            #'  '#       #        #'  '#        
            ##       ##  #######   ##           ,######,      #####,   #    #        
            '#,     ,#'  ##    ##  '#,     ,#' ,#      #,         ##   #,  ,#        
             '#######'   ##     ##  '#######'  #'      '#     #####' # '####'        



                  #######################################################
                  #                        -***-                        #
                  #          Department of theory and spectroscopy      #
                  #    Directorship and core code : Frank Neese         #
                  #        Max Planck Institute fuer Kohlenforschung    #
                  #                Kaiser Wilhelm Platz 1               #
                  #                 D-45470 Muelheim/Ruhr               #
                  #                      Germany                        #
                  #                                                     #
                  #                  All rights reserved                #
                  #                        -***-                        #
                  #######################################################


                         Program Version 5.0.4 -  RELEASE  -


 With contributions from (in alphabetic order):
   Daniel Aravena         : Magnetic Suceptibility
   Michael Atanasov       : Ab Initio Ligand Field Theory (pilot matlab implementation)
   Alexander A. Auer      : GIAO ZORA, VPT2 properties, NMR spectrum
   Ute Becker             : Parallelization
   Giovanni Bistoni       : ED, misc. LED, open-shell LED, HFLD
   Martin Brehm           : Molecular dynamics
   Dmytro Bykov           : SCF Hessian
   Vijay G. Chilkuri      : MRCI spin determinant printing, contributions to CSF-ICE
   Dipayan Datta          : RHF DLPNO-CCSD density
   Achintya Kumar Dutta   : EOM-CC, STEOM-CC
   Dmitry Ganyushin       : Spin-Orbit,Spin-Spin,Magnetic field MRCI
   Miquel Garcia          : C-PCM and meta-GGA Hessian, CC/C-PCM, Gaussian charge scheme
   Yang Guo               : DLPNO-NEVPT2, F12-NEVPT2, CIM, IAO-localization
   Andreas Hansen         : Spin unrestricted coupled pair/coupled cluster methods
   Benjamin Helmich-Paris : MC-RPA, TRAH-SCF, COSX integrals
   Lee Huntington         : MR-EOM, pCC
   Robert Izsak           : Overlap fitted RIJCOSX, COSX-SCS-MP3, EOM
   Marcus Kettner         : VPT2
   Christian Kollmar      : KDIIS, OOCD, Brueckner-CCSD(T), CCSD density, CASPT2, CASPT2-K
   Simone Kossmann        : Meta GGA functionals, TD-DFT gradient, OOMP2, MP2 Hessian
   Martin Krupicka        : Initial AUTO-CI
   Lucas Lang             : DCDCAS
   Marvin Lechner         : AUTO-CI (C++ implementation), FIC-MRCC
   Dagmar Lenk            : GEPOL surface, SMD
   Dimitrios Liakos       : Extrapolation schemes; Compound Job, initial MDCI parallelization
   Dimitrios Manganas     : Further ROCIS development; embedding schemes
   Dimitrios Pantazis     : SARC Basis sets
   Anastasios Papadopoulos: AUTO-CI, single reference methods and gradients
   Taras Petrenko         : DFT Hessian,TD-DFT gradient, ASA, ECA, R-Raman, ABS, FL, XAS/XES, NRVS
   Peter Pinski           : DLPNO-MP2, DLPNO-MP2 Gradient
   Christoph Reimann      : Effective Core Potentials
   Marius Retegan         : Local ZFS, SOC
   Christoph Riplinger    : Optimizer, TS searches, QM/MM, DLPNO-CCSD(T), (RO)-DLPNO pert. Triples
   Tobias Risthaus        : Range-separated hybrids, TD-DFT gradient, RPA, STAB
   Michael Roemelt        : Original ROCIS implementation
   Masaaki Saitow         : Open-shell DLPNO-CCSD energy and density
   Barbara Sandhoefer     : DKH picture change effects
   Avijit Sen             : IP-ROCIS
   Kantharuban Sivalingam : CASSCF convergence, NEVPT2, FIC-MRCI
   Bernardo de Souza      : ESD, SOC TD-DFT
   Georgi Stoychev        : AutoAux, RI-MP2 NMR, DLPNO-MP2 response
   Willem Van den Heuvel  : Paramagnetic NMR
   Boris Wezisla          : Elementary symmetry handling
   Frank Wennmohs         : Technical directorship


 We gratefully acknowledge several colleagues who have allowed us to
 interface, adapt or use parts of their codes:
   Stefan Grimme, W. Hujo, H. Kruse, P. Pracht,  : VdW corrections, initial TS optimization,
                  C. Bannwarth, S. Ehlert          DFT functionals, gCP, sTDA/sTD-DF
   Ed Valeev, F. Pavosevic, A. Kumar             : LibInt (2-el integral package), F12 methods
   Garnet Chan, S. Sharma, J. Yang, R. Olivares  : DMRG
   Ulf Ekstrom                                   : XCFun DFT Library
   Mihaly Kallay                                 : mrcc  (arbitrary order and MRCC methods)
   Jiri Pittner, Ondrej Demel                    : Mk-CCSD
   Frank Weinhold                                : gennbo (NPA and NBO analysis)
   Christopher J. Cramer and Donald G. Truhlar   : smd solvation model
   Lars Goerigk                                  : TD-DFT with DH, B97 family of functionals
   V. Asgeirsson, H. Jonsson                     : NEB implementation
   FAccTs GmbH                                   : IRC, NEB, NEB-TS, DLPNO-Multilevel, CI-OPT
                                                   MM, QMMM, 2- and 3-layer-ONIOM, Crystal-QMMM,
                                                   LR-CPCM, SF, NACMEs, symmetry and pop. for TD-DFT,
                                                   nearIR, NL-DFT gradient (VV10), updates on ESD,
                                                   ML-optimized integration grids
   S Lehtola, MJT Oliveira, MAL Marques          : LibXC Library
   Liviu Ungur et al                             : ANISO software


 Your calculation uses the libint2 library for the computation of 2-el integrals
 For citations please refer to: http://libint.valeyev.net

 Your ORCA version has been built with support for libXC version: 5.1.0
 For citations please refer to: https://tddft.org/programs/libxc/

 This ORCA versions uses:
   CBLAS   interface :  Fast vector & matrix operations
   LAPACKE interface :  Fast linear algebra routines
   SCALAPACK package :  Parallel linear algebra routines
   Shared memory     :  Shared parallel matrices
   BLAS/LAPACK       :  OpenBLAS 0.3.15  USE64BITINT DYNAMIC_ARCH NO_AFFINITY Prescott SINGLE_THREADED
        Core in use  :  Prescott
   Copyright (c) 2011-2014, The OpenBLAS Project


================================================================================

----- Orbital basis set information -----
Your calculation utilizes the basis: TZVP 

The basis set includes element-specific modifications.

Your calculation utilizes the basis: CP(PPP) 

----- AuxJ basis set information -----
Your calculation utilizes the auxiliary basis: def2/J
   F. Weigend, Phys. Chem. Chem. Phys. 8, 1057 (2006).

================================================================================
                                        WARNINGS
                       Please study these warnings very carefully!
================================================================================


WARNING: your system is open-shell and RHF/RKS was chosen
  ===> : WILL SWITCH to UHF/UKS


INFO   : the flag for use of the SHARK integral package has been found!

================================================================================
                                       INPUT FILE
================================================================================
NAME = input_17.inp
|  1> ! nofrozencore ReducedPop printbasis
|  2> ! B3LYP TZVP
|  3> 
|  4> %basis
|  5> newgto V "CP(PPP)" end
|  6> end
|  7> 
|  8> %pal
|  9> nprocs 4
| 10> end
| 11> 
| 12> % sym SymThresh 1e-2 end
| 13> * xyz -2 2 
| 14> V 0.9703490563161098 -0.5354511399306662 -0.14209495302221434
| 15> S -0.7619636229031793 -2.1855957782725954 -0.6614070882862302
| 16> S 0.5407836777974613 0.6233842179811405 -2.258018701049195
| 17> S 0.15993162030543676 -0.8259976616371887 2.1575416429692322
| 18> S 1.3825832602067516 1.7359179678239727 0.6931444005277396
| 19> O 2.435044640069359 -1.1976974066182473 -0.08858167092243892
| 20> C 1.171180909672397 2.2469049690314065 -1.9999540415574333
| 21> C 1.5985852235493863 2.699063797911421 -0.7885587028817413
| 22> C -1.2045168905614723 -2.8559596157831177 0.9055416829108802
| 23> C -0.7661746687895493 -2.3445111968424093 2.0889146240389525
| 24> S 1.2462752643446322 3.150938618107 -3.556138613748157
| 25> S 2.270220633813083 4.3732472303417085 -0.655234358799887
| 26> S -1.255304660626203 -3.141786645712558 3.6377341943458936
| 27> S -2.2285807819180365 -4.324018144574405 0.7037285293534086
| 28> C 0.7636122008077045 5.3478884220349645 -1.1773332142715571
| 29> C -3.104428138653963 -2.9058055993876035 3.5341099559704054
| 30> C -0.03945137626124458 4.45915534683169 -3.4716143813517726
| 31> C -3.9139919101905107 -3.8697080547748093 1.2728269298173243
| 32> C 0.46121343885255084 5.6405943633325535 -2.6594802671910984
| 33> H -0.9709056502022682 4.039459318479532 -3.07495299367782
| 34> H -0.21200714080002378 4.752671118662876 -4.516625214428531
| 35> H -0.30208941507548365 6.440263531466338 -2.668539646780066
| 36> H 1.3559649433997534 6.0464909639552085 -3.1447655064128273
| 37> H 0.8660773102717445 6.312042159506196 -0.6604374133215221
| 38> H -0.08155969010105206 4.819590048417855 -0.7242584398598327
| 39> C -3.999958823643365 -3.9122251694584507 2.7886288408173625
| 40> H -4.57368369845254 -4.627476709674705 0.8277691271536152
| 41> H -4.191093389642526 -2.891942608552475 0.8628556679279752
| 42> H -3.7690549627208028 -4.929063674825194 3.125528485081914
| 43> H -5.038084646315727 -3.697006777479556 3.10035297096588
| 44> H -3.2373650720421057 -1.9045723337242055 3.111819374380709
| 45> H -3.437572303576325 -2.870165959480573 4.580297074489592
| 46> * 
| 47> 
| 48> % eprnmr
| 49> gtensor true
| 50> Nuclei = all H {aiso,adip,aorb,fgrad,rho}
| 51> Nuclei = all V {aiso,adip,aorb,fgrad,rho}
| 52> end
| 53> 
| 54>                          ****END OF INPUT****
================================================================================

------------------------------------------------------------------------------
                            SYMMETRY HANDLING SETUP
------------------------------------------------------------------------------

------------------
SYMMETRY DETECTION
------------------
The point group will now be determined using a tolerance of 1.0000e-02.
Splitting atom subsets according to nuclear charge, mass and basis set.
Splitting atom subsets according to distance from the molecule's center.
Identifying relative distance patterns of the atoms.
Splitting atom subsets according to atoms' relative distance patterns.
Bring atoms of each subset into input order.
The molecule is neither linear nor planar.
There is at least one atom subset not centered around the molecule's center.
The molecule does not have a center of inversion.
Analyzing the first atom subset for its symmetry.
The subset is an off-center atom pair.
Testing point group C2v.
Test failed.
Testing point group C2.
Test failed.
Testing point group Cs.
Test failed.
Testing point group Cs.
Test failed.
No testing is needed for point group C1.
This point group has been found:    C1
Largest non-degenerate subgroup:    C1


Mass-centered symmetry-perfected Cartesians (point group C1):

Atom          Symmetry-perfected Cartesians (x, y, z; au)
  0       1.835731614985   -1.012759908881   -0.268766673924
  1      -1.437864927059   -4.131081356705   -1.250124387594
  2       1.023970692971    1.177121551877   -4.267283077955
  3       0.304264606770   -1.561813264069    4.076916700043
  4       2.614741363374    3.279505653825    1.309606960559
  5       4.603605137843   -2.264223986132   -0.167641226228
  6       2.215248816796    4.245131144100   -3.779611546672
  7       3.022925918480    5.099587499718   -1.490406116666
  8      -2.274169402605   -5.397885419685    1.710979655853
  9      -1.445822650521   -4.431387976260    3.947230428878
 10       2.357156581331    5.953507156703   -6.720374201946
 11       4.292132905723    8.263335684960   -1.238459619366
 12      -2.370144378980   -5.938020227924    6.874075247615
 13      -4.209369700906   -8.172113987668    1.329608065406
 14       1.445055576286   10.105140616099   -2.225083471042
 15      -5.864481340256   -5.492080677573    6.678253816249
 16      -0.072514652501    8.425678497807   -6.560646551036
 17      -7.394335156405   -7.313592338069    2.405048185535
 18       0.873604732954   10.658274682923   -5.025935491258
 19      -1.832708136520    7.632567944727   -5.811065160432
 20      -0.398597790309    8.980342922554   -8.535430832532
 21      -0.568828618210   12.169430408436   -5.043055237624
 22       2.564440034462   11.425308096789   -5.942991690222
 23       1.638686571456   11.927127130916   -1.248291967472
 24      -0.152087833620    9.106801372966   -1.368896229215
 25      -7.556789079409   -7.393938040826    5.269498670600
 26      -8.640971969017   -8.745567568700    1.564010824736
 27      -7.917981063873   -5.465883421498    1.630314777786
 28      -7.120444019000   -9.315484338395    5.906146732875
 29      -9.518562576811   -6.987234221003    5.858571905915
 30      -6.115695737443   -3.600024009298    5.880240268111
 31      -6.494032575073   -5.424731518637    8.655260955087


------------------
SYMMETRY REDUCTION
------------------
ORCA supports only abelian point groups.
It is now checked, if the determined point group is supported:
Point Group ( C1    ) is          ... supported

The point group is C1 - hence turning off symmetry
If this is a round-off problem, please increase the symmetry
        detection tolerance (%method SymThresh)

Storing the symmetry object:
Symmetry file                     ... input_17.sym.tmp
Writing symmetry information      ... done

                       ****************************
                       * Single Point Calculation *
                       ****************************

---------------------------------
CARTESIAN COORDINATES (ANGSTROEM)
---------------------------------
  V      0.971427   -0.535929   -0.142225
  S     -0.760885   -2.186074   -0.661537
  S      0.541862    0.622906   -2.258149
  S      0.161010   -0.826476    2.157411
  S      1.383662    1.735440    0.693014
  O      2.436123   -1.198176   -0.088712
  C      1.172259    2.246427   -2.000084
  C      1.599663    2.698585   -0.788689
  C     -1.203439   -2.856438    0.905411
  C     -0.765096   -2.344990    2.088784
  S      1.247354    3.150460   -3.556269
  S      2.271299    4.372769   -0.655365
  S     -1.254226   -3.142265    3.637604
  S     -2.227503   -4.324496    0.703598
  C      0.764690    5.347410   -1.177463
  C     -3.103350   -2.906284    3.533980
  C     -0.038373    4.458677   -3.471745
  C     -3.912914   -3.870186    1.272697
  C      0.462292    5.640116   -2.659611
  H     -0.969827    4.038981   -3.075083
  H     -0.210929    4.752193   -4.516755
  H     -0.301011    6.439785   -2.668670
  H      1.357043    6.046013   -3.144896
  H      0.867156    6.311564   -0.660568
  H     -0.080481    4.819112   -0.724389
  C     -3.998881   -3.912703    2.788499
  H     -4.572605   -4.627955    0.827639
  H     -4.190015   -2.892421    0.862725
  H     -3.767977   -4.929542    3.125398
  H     -5.037006   -3.697485    3.100223
  H     -3.236287   -1.905051    3.111689
  H     -3.436494   -2.870644    4.580167

----------------------------
CARTESIAN COORDINATES (A.U.)
----------------------------
  NO LB      ZA    FRAG     MASS         X           Y           Z
   0 V    23.0000    0    50.940    1.835732   -1.012760   -0.268767
   1 S    16.0000    0    32.060   -1.437865   -4.131081   -1.250124
   2 S    16.0000    0    32.060    1.023971    1.177122   -4.267283
   3 S    16.0000    0    32.060    0.304265   -1.561813    4.076917
   4 S    16.0000    0    32.060    2.614741    3.279506    1.309607
   5 O     8.0000    0    15.999    4.603605   -2.264224   -0.167641
   6 C     6.0000    0    12.011    2.215249    4.245131   -3.779612
   7 C     6.0000    0    12.011    3.022926    5.099587   -1.490406
   8 C     6.0000    0    12.011   -2.274169   -5.397885    1.710980
   9 C     6.0000    0    12.011   -1.445823   -4.431388    3.947230
  10 S    16.0000    0    32.060    2.357157    5.953507   -6.720374
  11 S    16.0000    0    32.060    4.292133    8.263336   -1.238460
  12 S    16.0000    0    32.060   -2.370144   -5.938020    6.874075
  13 S    16.0000    0    32.060   -4.209370   -8.172114    1.329608
  14 C     6.0000    0    12.011    1.445056   10.105141   -2.225083
  15 C     6.0000    0    12.011   -5.864481   -5.492081    6.678254
  16 C     6.0000    0    12.011   -0.072515    8.425678   -6.560647
  17 C     6.0000    0    12.011   -7.394335   -7.313592    2.405048
  18 C     6.0000    0    12.011    0.873605   10.658275   -5.025935
  19 H     1.0000    0     1.008   -1.832708    7.632568   -5.811065
  20 H     1.0000    0     1.008   -0.398598    8.980343   -8.535431
  21 H     1.0000    0     1.008   -0.568829   12.169430   -5.043055
  22 H     1.0000    0     1.008    2.564440   11.425308   -5.942992
  23 H     1.0000    0     1.008    1.638687   11.927127   -1.248292
  24 H     1.0000    0     1.008   -0.152088    9.106801   -1.368896
  25 C     6.0000    0    12.011   -7.556789   -7.393938    5.269499
  26 H     1.0000    0     1.008   -8.640972   -8.745568    1.564011
  27 H     1.0000    0     1.008   -7.917981   -5.465883    1.630315
  28 H     1.0000    0     1.008   -7.120444   -9.315484    5.906147
  29 H     1.0000    0     1.008   -9.518563   -6.987234    5.858572
  30 H     1.0000    0     1.008   -6.115696   -3.600024    5.880240
  31 H     1.0000    0     1.008   -6.494033   -5.424732    8.655261

--------------------------------
INTERNAL COORDINATES (ANGSTROEM)
--------------------------------
 V      0   0   0     0.000000000000     0.00000000     0.00000000
 S      1   0   0     2.448176799144     0.00000000     0.00000000
 S      1   2   0     2.450420190219    90.66168886     0.00000000
 S      1   2   3     2.455508537043    83.41761413   144.17965777
 S      1   2   3     2.454929620221   144.54991983    79.57704890
 O      1   2   3     1.608342918090   111.95735484   245.30752482
 C      3   1   2     1.760629906461   104.28530344   158.75133856
 C      7   3   1     1.361837259227   123.29298903   351.70346695
 C      2   1   3     1.760843411810   104.22217835   201.54589178
 C      9   2   1     1.361651536341   123.33062890     8.83120793
 S      7   3   1     1.801284659205   110.55429071   168.57414674
 S      8   7   3     1.808800616560   119.30195417   178.29259919
 S     10   9   2     1.809347493339   119.43256114   181.46272564
 S      9   2   1     1.801285997971   110.69922650   191.50939009
 C     12   8   7     1.868791491267    99.36808012    61.69077513
 C     13  10   9     1.866998305837    99.47052135   297.78469205
 C     11   7   3     1.836210322796   106.77471055   110.34453129
 C     14   9   2     1.835996001741   106.58821222   249.67249136
 C     17  11   7     1.518560247796   110.36817790    79.84359156
 H     17  11   7     1.095943464385   109.81208585   315.10748880
 H     17  11   7     1.099078996905   104.85837574   199.02016286
 H     19  17  11     1.105524354158   109.31355070   176.76737238
 H     19  17  11     1.095825747413   108.69531608    60.31446426
 H     15  12   8     1.098759663064   104.53862380   151.66339886
 H     15  12   8     1.094847682537   104.77796410    38.72641857
 C     18  14   9     1.518832923215   110.75545583   280.15411121
 H     18  14   9     1.098855330588   104.76909985   160.94385027
 H     18  14   9     1.095849868055   109.69083742    45.03093586
 H     26  18  14     1.095800396647   108.71627491   299.89843485
 H     26  18  14     1.105077424103   109.22266804   183.50204196
 H     16  13  10     1.094746370548   104.90862635   321.18744535
 H     16  13  10     1.098527516956   104.57238135   208.17637180

---------------------------
INTERNAL COORDINATES (A.U.)
---------------------------
 V      0   0   0     0.000000000000     0.00000000     0.00000000
 S      1   0   0     4.626383677801     0.00000000     0.00000000
 S      1   2   0     4.630623072545    90.66168886     0.00000000
 S      1   2   3     4.640238654516    83.41761413   144.17965777
 S      1   2   3     4.639144660269   144.54991983    79.57704890
 O      1   2   3     3.039327644621   111.95735484   245.30752482
 C      3   1   2     3.327108346403   104.28530344   158.75133856
 C      7   3   1     2.573499458910   123.29298903   351.70346695
 C      2   1   3     3.327511813040   104.22217835   201.54589178
 C      9   2   1     2.573148493517   123.33062890     8.83120793
 S      7   3   1     3.403934695132   110.55429071   168.57414674
 S      8   7   3     3.418137796167   119.30195417   178.29259919
 S     10   9   2     3.419171243507   119.43256114   181.46272564
 S      9   2   1     3.403937225032   110.69922650   191.50939009
 C     12   8   7     3.531504119897    99.36808012    61.69077513
 C     13  10   9     3.528115490526    99.47052135   297.78469205
 C     11   7   3     3.469934634363   106.77471055   110.34453129
 C     14   9   2     3.469529626265   106.58821222   249.67249136
 C     17  11   7     2.869662986195   110.36817790    79.84359156
 H     17  11   7     2.071033005949   109.81208585   315.10748880
 H     17  11   7     2.076958303695   104.85837574   199.02016286
 H     19  17  11     2.089138263739   109.31355070   176.76737238
 H     19  17  11     2.070810553110   108.69531608    60.31446426
 H     15  12   8     2.076354850191   104.53862380   151.66339886
 H     15  12   8     2.068962278354   104.77796410    38.72641857
 C     18  14   9     2.870178268059   110.75545583   280.15411121
 H     18  14   9     2.076535635610   104.76909985   160.94385027
 H     18  14   9     2.070856134518   109.69083742    45.03093586
 H     26  18  14     2.070762647104   108.71627491   299.89843485
 H     26  18  14     2.088293688334   109.22266804   183.50204196
 H     16  13  10     2.068770826441   104.90862635   321.18744535
 H     16  13  10     2.075916157624   104.57238135   208.17637180

---------------------
BASIS SET INFORMATION
---------------------
There are 5 groups of distinct atoms

 Group   1 Type V   : 17s11p5d1f contracted to 17s7p3d1f pattern {11111111111111111/3311111/311/1}
 Group   2 Type S   : 14s9p1d contracted to 5s4p1d pattern {73211/6111/1}
 Group   3 Type O   : 11s6p1d contracted to 5s3p1d pattern {62111/411/1}
 Group   4 Type C   : 11s6p1d contracted to 5s3p1d pattern {62111/411/1}
 Group   5 Type H   : 5s1p contracted to 3s1p pattern {311/1}

Atom   0V    basis set group =>   1
Atom   1S    basis set group =>   2
Atom   2S    basis set group =>   2
Atom   3S    basis set group =>   2
Atom   4S    basis set group =>   2
Atom   5O    basis set group =>   3
Atom   6C    basis set group =>   4
Atom   7C    basis set group =>   4
Atom   8C    basis set group =>   4
Atom   9C    basis set group =>   4
Atom  10S    basis set group =>   2
Atom  11S    basis set group =>   2
Atom  12S    basis set group =>   2
Atom  13S    basis set group =>   2
Atom  14C    basis set group =>   4
Atom  15C    basis set group =>   4
Atom  16C    basis set group =>   4
Atom  17C    basis set group =>   4
Atom  18C    basis set group =>   4
Atom  19H    basis set group =>   5
Atom  20H    basis set group =>   5
Atom  21H    basis set group =>   5
Atom  22H    basis set group =>   5
Atom  23H    basis set group =>   5
Atom  24H    basis set group =>   5
Atom  25C    basis set group =>   4
Atom  26H    basis set group =>   5
Atom  27H    basis set group =>   5
Atom  28H    basis set group =>   5
Atom  29H    basis set group =>   5
Atom  30H    basis set group =>   5
Atom  31H    basis set group =>   5

-------------------------
BASIS SET IN INPUT FORMAT
-------------------------

 # Basis set for element : H 
 NewGTO H 
 S 3 
   1      34.0613410000      0.0254393168
   2       5.1235746000      0.1900859340
   3       1.1646626000      0.8524411390
 S 1 
   1       0.3272304100      1.0000000000
 S 1 
   1       0.1030724100      1.0000000000
 P 1 
   1       0.8000000000      1.0000000000
  end;

 # Basis set for element : C 
 NewGTO C 
 S 6 
   1   13575.3496820000      0.0006064601
   2    2035.2333680000      0.0046978985
   3     463.2256235900      0.0243324735
   4     131.2001959800      0.0973999560
   5      42.8530158900      0.3019558443
   6      15.5841857700      0.6623361013
 S 2 
   1       6.2067138500      0.6559530795
   2       2.5764896500      0.3758563390
 S 1 
   1       0.5769633900      1.0000000000
 S 1 
   1       0.2297283100      1.0000000000
 S 1 
   1       0.0951644400      1.0000000000
 P 4 
   1      34.6972322400      0.0113272290
   2       7.9582622800      0.0761696612
   3       2.3780826900      0.3019225154
   4       0.8143320800      0.7278502776
 P 1 
   1       0.2888754700      1.0000000000
 P 1 
   1       0.1005682400      1.0000000000
 D 1 
   1       0.8000000000      1.0000000000
  end;

 # Basis set for element : O 
 NewGTO O 
 S 6 
   1   27032.3826310000      0.0005722654
   2    4052.3871392000      0.0044353333
   3     922.3272271000      0.0230201034
   4     261.2407098900      0.0928224938
   5      85.3546413500      0.2937849971
   6      31.0350352400      0.6740160462
 S 2 
   1      12.2608607300      0.6383993750
   2       4.9987076000      0.3953458663
 S 1 
   1       1.1703108200      1.0000000000
 S 1 
   1       0.4647474100      1.0000000000
 S 1 
   1       0.1850453600      1.0000000000
 P 4 
   1      63.2749548000      0.0120183316
   2      14.6270493800      0.0830054304
   3       4.4501223500      0.3199174388
   4       1.5275799600      0.7071554258
 P 1 
   1       0.5293511800      1.0000000000
 P 1 
   1       0.1747842100      1.0000000000
 D 1 
   1       1.2000000000      1.0000000000
  end;

 # Basis set for element : S 
 NewGTO S 
 S 7 
   1   60700.9281040000      0.0005238013
   2    9102.6106854000      0.0040506304
   3    2071.4166009000      0.0208270003
   4     586.0247682100      0.0814968475
   5     190.5539502100      0.2374911358
   6      67.6303842600      0.4472617145
   7      25.1273069100      0.3489191913
 S 3 
   1     112.5746301000      0.1004556993
   2      34.7955542200      0.4339117282
   3       6.5115556200     -1.2084330582
 S 2 
   1       3.2399032300      0.6749812922
   2       1.5477160900      0.3470879597
 S 1 
   1       0.4054103000      1.0000000000
 S 1 
   1       0.1455065100      1.0000000000
 P 6 
   1     564.3671602700      0.0025564845
   2     133.4262437900      0.0202874255
   3      42.4682711900      0.0927670112
   4      15.6165275800      0.2650208365
   5       6.1093988500      0.4486298663
   6       2.4404160200      0.3596369916
 P 1 
   1       0.8388220100      1.0000000000
 P 1 
   1       0.3128874700      1.0000000000
 P 1 
   1       0.1077010900      1.0000000000
 D 1 
   1       0.5500000000      1.0000000000
  end;

 # Basis set for element : V 
 NewGTO V 
 S 1 
   1  4239814.9912500000      1.0000000000
 S 1 
   1  1695925.9965000001      1.0000000000
 S 1 
   1  678370.3986000001      1.0000000000
 S 1 
   1  271348.1594400000      1.0000000000
 S 1 
   1   40672.0050780000      1.0000000000
 S 1 
   1    9257.0761385000      1.0000000000
 S 1 
   1    2622.7328773000      1.0000000000
 S 1 
   1     858.5948018500      1.0000000000
 S 1 
   1     314.1941865000      1.0000000000
 S 1 
   1     124.4786212700      1.0000000000
 S 1 
   1      50.4693993090      1.0000000000
 S 1 
   1      12.5138469110      1.0000000000
 S 1 
   1       5.3447758082      1.0000000000
 S 1 
   1       1.5755631295      1.0000000000
 S 1 
   1       0.6306903307      1.0000000000
 S 1 
   1       0.0879544416      1.0000000000
 S 1 
   1       0.0342969197      1.0000000000
 P 3 
   1    1450.0319327000     -0.0222847647
   2     343.7504988400     -0.1817959329
   3     110.8252170800     -0.8607412073
 P 3 
   1      41.8224645460     -0.2522537814
   2      17.0880737100     -0.4620379520
   3       7.2613218939     -0.3990010670
 P 1 
   1       2.9458145262      1.0000000000
 P 1 
   1       1.1650209680      1.0000000000
 P 1 
   1       0.4339937839      1.0000000000
 D 3 
   1      27.3603358640      0.0575501019
   2       7.4542765527      0.3023798347
   3       2.4632270217      0.7724212088
 D 1 
   1       0.8249954244      1.0000000000
 D 1 
   1       0.2526297057      1.0000000000
 P 1 
   1       0.1112480000      1.0000000000
 P 1 
   1       0.0363780000      1.0000000000
 F 1 
   1       1.8000000000      1.0000000000
  end;

---------------------------------
AUXILIARY/J BASIS SET INFORMATION
---------------------------------
There are 5 groups of distinct atoms

 Group   1 Type V   : 19s5p5d3f3g contracted to 8s5p5d2f3g pattern {121111111/11111/11111/21/111}
 Group   2 Type S   : 14s5p5d2f1g contracted to 8s4p3d1f1g pattern {71111111/2111/311/2/1}
 Group   3 Type O   : 12s5p4d2f1g contracted to 6s4p3d1f1g pattern {711111/2111/211/2/1}
 Group   4 Type C   : 12s5p4d2f1g contracted to 6s4p3d1f1g pattern {711111/2111/211/2/1}
 Group   5 Type H   : 5s2p1d contracted to 3s1p1d pattern {311/2/1}

Atom   0V    basis set group =>   1
Atom   1S    basis set group =>   2
Atom   2S    basis set group =>   2
Atom   3S    basis set group =>   2
Atom   4S    basis set group =>   2
Atom   5O    basis set group =>   3
Atom   6C    basis set group =>   4
Atom   7C    basis set group =>   4
Atom   8C    basis set group =>   4
Atom   9C    basis set group =>   4
Atom  10S    basis set group =>   2
Atom  11S    basis set group =>   2
Atom  12S    basis set group =>   2
Atom  13S    basis set group =>   2
Atom  14C    basis set group =>   4
Atom  15C    basis set group =>   4
Atom  16C    basis set group =>   4
Atom  17C    basis set group =>   4
Atom  18C    basis set group =>   4
Atom  19H    basis set group =>   5
Atom  20H    basis set group =>   5
Atom  21H    basis set group =>   5
Atom  22H    basis set group =>   5
Atom  23H    basis set group =>   5
Atom  24H    basis set group =>   5
Atom  25C    basis set group =>   4
Atom  26H    basis set group =>   5
Atom  27H    basis set group =>   5
Atom  28H    basis set group =>   5
Atom  29H    basis set group =>   5
Atom  30H    basis set group =>   5
Atom  31H    basis set group =>   5

-------------------------------------
AUXILIARY/J BASIS SET IN INPUT FORMAT
-------------------------------------

 # Auxiliary/J basis set for element : H 
 NewAuxJGTO H 
 S 3 
   1      15.6752927000      0.1007184237
   2       3.6063578000      0.3404257499
   3       1.2080016000      0.6491996172
 S 1 
   1       0.4726794000      1.0000000000
 S 1 
   1       0.2018100000      1.0000000000
 P 2 
   1       2.0281365000      0.5596620919
   2       0.5358730000      0.5596620919
 D 1 
   1       2.2165124000      1.0000000000
  end;

 # Auxiliary/J basis set for element : C 
 NewAuxJGTO C 
 S 7 
   1    1861.0916331000      0.0134602335
   2     642.9939764000      0.0299160374
   3     235.1105725000      0.1008649584
   4      90.7028894000      0.2370970548
   5      36.7794552000      0.3924037254
   6      15.6046273000      0.3195862154
   7       6.8907294000      0.0530104441
 S 1 
   1       3.1478850000     -1.0000000000
 S 1 
   1       1.4777287000      1.0000000000
 S 1 
   1       0.7076466000      1.0000000000
 S 1 
   1       0.3430122000      1.0000000000
 S 1 
   1       0.1669453000      1.0000000000
 P 2 
   1      13.5472892000     -0.6769313712
   2       5.4669419000     -0.3779500978
 P 1 
   1       2.1751721000      1.0000000000
 P 1 
   1       0.8582194000      1.0000000000
 P 1 
   1       0.3376720000      1.0000000000
 D 2 
   1       5.9287253000     -0.3533329857
   2       1.9809209000     -0.7456525731
 D 1 
   1       0.8055417000     -1.0000000000
 D 1 
   1       0.3531244000     -1.0000000000
 F 2 
   1       1.6755626000      0.6311076882
   2       0.5997536000      0.4968166032
 G 1 
   1       1.0024600000     -1.0000000000
  end;

 # Auxiliary/J basis set for element : O 
 NewAuxJGTO O 
 S 7 
   1    2876.8216605000      0.0168151159
   2    1004.7443032000      0.0340137548
   3     369.7579954000      0.1194951309
   4     142.9442404000      0.2664627624
   5      57.8366425000      0.4202764046
   6      24.3864983000      0.2765077335
   7      10.6622662000      0.0057008815
 S 1 
   1       4.8070437000     -1.0000000000
 S 1 
   1       2.2210770000      1.0000000000
 S 1 
   1       1.0447795000      1.0000000000
 S 1 
   1       0.4968425000      1.0000000000
 S 1 
   1       0.2371384000      1.0000000000
 P 2 
   1      64.2613382000     -0.2731534179
   2      16.3006076000     -0.8168011598
 P 1 
   1       4.3550542000      1.0000000000
 P 1 
   1       1.2019554000      1.0000000000
 P 1 
   1       0.3354196000      1.0000000000
 D 2 
   1       9.2146611000     -0.4661230638
   2       2.8435251000     -0.6600908911
 D 1 
   1       0.9955759000     -1.0000000000
 D 1 
   1       0.3649441000     -1.0000000000
 F 2 
   1       2.6420115000      0.5931563945
   2       0.7345613000      0.5931563945
 G 1 
   1       1.3931000000     -1.0000000000
  end;

 # Auxiliary/J basis set for element : S 
 NewAuxJGTO S 
 S 7 
   1    7399.0303145000      0.0295137551
   2    2710.1675859000      0.0559686311
   3    1034.3279062000      0.1764696370
   4     410.4645411000      0.3577969368
   5     168.9762502000      0.4299293578
   6      71.9687889000      0.1259148089
   7      31.6172683000     -0.0646025788
 S 1 
   1      14.2796836000      1.0000000000
 S 1 
   1       6.6060948000      1.0000000000
 S 1 
   1       3.1181477000      1.0000000000
 S 1 
   1       1.4954039000     -1.0000000000
 S 1 
   1       0.7254779000      1.0000000000
 S 1 
   1       0.3544216000      1.0000000000
 S 1 
   1       0.1735525000      1.0000000000
 P 2 
   1      12.6998799000      1.4059102813
   2       4.4295784000     -1.2124994202
 P 1 
   1       1.5232889000      1.0000000000
 P 1 
   1       0.5194667000     -1.0000000000
 P 1 
   1       0.1766547000     -1.0000000000
 D 3 
   1      16.8546461000      1.0295742104
   2       5.0810461000     -0.7461553923
   3       1.5102323000      0.8357028005
 D 1 
   1       0.4451331000      1.0000000000
 D 1 
   1       0.1308362000      1.0000000000
 F 2 
   1       1.0809860000      0.5572698934
   2       0.4161474000      0.5572698934
 G 1 
   1       0.6707100000     -1.0000000000
  end;

 # Auxiliary/J basis set for element : V 
 NewAuxJGTO V 
 S 12 
   1   11942.0842430000      0.0459866720
   2    2430.7110193000      0.1744615821
   3     841.0764301000      0.2900402792
   4     494.7508273000      0.1411212903
   5     291.0298903000      0.2660697186
   6     171.1940483000      0.0446365706
   7      59.2366916000     -0.0408204801
   8      34.8451117000      0.1394665381
   9      20.4971240000      0.2164746715
  10      12.0571314000      0.0864266611
  11       7.0924300000     -0.0568501658
  12       4.1720176000     -0.0126212852
 S 1 
   1       2.4541279000      1.0000000000
 S 1 
   1       1.4436046000      1.0000000000
 S 1 
   1       0.8491792000      1.0000000000
 S 1 
   1       0.2938336000      1.0000000000
 S 1 
   1       0.1728433000      1.0000000000
 S 1 
   1       0.1016725000      1.0000000000
 S 1 
   1       0.0598074000      1.0000000000
 P 1 
   1      16.7130979000     -1.0000000000
 P 1 
   1       4.7454037000     -1.0000000000
 P 1 
   1       1.3889998000      1.0000000000
 P 1 
   1       0.4142440000     -1.0000000000
 P 1 
   1       0.1243234000      1.0000000000
 D 1 
   1       7.7143225000      1.0000000000
 D 1 
   1       3.1170731000      1.0000000000
 D 1 
   1       1.2767950000     -1.0000000000
 D 1 
   1       0.5273386000      1.0000000000
 D 1 
   1       0.2184050000      1.0000000000
 F 2 
   1       3.1309344000     -1.0825667766
   2       1.0419780000      0.1809223232
 F 1 
   1       0.3559044000      1.0000000000
 G 1 
   1       8.7130110000      1.0000000000
 G 1 
   1       2.7493872000      1.0000000000
 G 1 
   1       0.8775089000      1.0000000000
  end;



           ************************************************************
           *        Program running with 4 parallel MPI-processes     *
           *              working on a common directory               *
           ************************************************************
------------------------------------------------------------------------------
                           ORCA GTO INTEGRAL CALCULATION
                           -- RI-GTO INTEGRALS CHOSEN --
------------------------------------------------------------------------------
------------------------------------------------------------------------------
                   ___                                                        
                  /   \      - P O W E R E D   B Y -                         
                 /     \                                                     
                 |  |  |   _    _      __       _____    __    __             
                 |  |  |  | |  | |    /  \     |  _  \  |  |  /  |          
                  \  \/   | |  | |   /    \    | | | |  |  | /  /          
                 / \  \   | |__| |  /  /\  \   | |_| |  |  |/  /          
                |  |  |   |  __  | /  /__\  \  |    /   |      \           
                |  |  |   | |  | | |   __   |  |    \   |  |\   \          
                \     /   | |  | | |  |  |  |  | |\  \  |  | \   \       
                 \___/    |_|  |_| |__|  |__|  |_| \__\ |__|  \__/        
                                                                              
                      - O R C A' S   B I G   F R I E N D -                    
                                      &                                       
                       - I N T E G R A L  F E E D E R -                       
                                                                              
 v1 FN, 2020, v2 2021                                                         
------------------------------------------------------------------------------


Reading SHARK input file input_17.SHARKINP.tmp ... ok
----------------------
SHARK INTEGRAL PACKAGE
----------------------

Number of atoms                             ...     32
Number of basis functions                   ...    517
Number of shells                            ...    255
Maximum angular momentum                    ...      3
Integral batch strategy                     ... SHARK/LIBINT Hybrid
RI-J (if used) integral strategy            ... SPLIT-RIJ (Revised 2003 algorithm where possible)
Printlevel                                  ...      1
Contraction scheme used                     ... SEGMENTED contraction
Coulomb Range Separation                    ... NOT USED
Exchange Range Separation                   ... NOT USED
Finite Nucleus Model                        ... NOT USED
Auxiliary Coulomb fitting basis             ... AVAILABLE
   # of basis functions in Aux-J            ...   1168
   # of shells in Aux-J                     ...    384
   Maximum angular momentum in Aux-J        ...      4
Auxiliary J/K fitting basis                 ... NOT available
Auxiliary Correlation fitting basis         ... NOT available
Auxiliary 'external' fitting basis          ... NOT available
Integral threshold                          ...     1.000000e-10
Primitive cut-off                           ...     1.000000e-11
Primitive pair pre-selection threshold      ...     1.000000e-11

Calculating pre-screening integrals         ... done (  0.1 sec) Dimension = 255
Organizing shell pair data                  ... done (  0.1 sec)
Shell pair information
Total number of shell pairs                 ...     32640
Shell pairs after pre-screening             ...     17814
Total number of primitive shell pairs       ...    123863
Primitive shell pairs kept                  ...     41681
          la=0 lb=0:   5381 shell pairs
          la=1 lb=0:   7061 shell pairs
          la=1 lb=1:   2295 shell pairs
          la=2 lb=0:   1673 shell pairs
          la=2 lb=1:   1114 shell pairs
          la=2 lb=2:    154 shell pairs
          la=3 lb=0:     71 shell pairs
          la=3 lb=1:     52 shell pairs
          la=3 lb=2:     12 shell pairs
          la=3 lb=3:      1 shell pairs

Calculating one electron integrals          ... done (  0.0 sec)
Calculating RI/J V-Matrix + Cholesky decomp.... done (  0.1 sec)
Calculating Nuclear repulsion               ... done (  0.0 sec) ENN=   3210.790780583834 Eh

SHARK setup successfully completed in   0.6 seconds

Maximum memory used throughout the entire GTOINT-calculation: 31.9 MB


           ************************************************************
           *        Program running with 4 parallel MPI-processes     *
           *              working on a common directory               *
           ************************************************************
-------------------------------------------------------------------------------
                                 ORCA SCF
-------------------------------------------------------------------------------

------------
SCF SETTINGS
------------
Hamiltonian:
 Density Functional     Method          .... DFT(GTOs)
 Exchange Functional    Exchange        .... B88
   X-Alpha parameter    XAlpha          ....  0.666667
   Becke's b parameter  XBeta           ....  0.004200
 Correlation Functional Correlation     .... LYP
 LDA part of GGA corr.  LDAOpt          .... VWN-5
 Gradients option       PostSCFGGA      .... off
 Hybrid DFT is turned on
   Fraction HF Exchange ScalHFX         ....  0.200000
   Scaling of DF-GGA-X  ScalDFX         ....  0.720000
   Scaling of DF-GGA-C  ScalDFC         ....  0.810000
   Scaling of DF-LDA-C  ScalLDAC        ....  1.000000
   Perturbative correction              ....  0.000000
   Density functional embedding theory  .... OFF
   NL short-range parameter             ....  4.800000
 RI-approximation to the Coulomb term is turned on
   Number of AuxJ basis functions       .... 1168
   RIJ-COSX (HFX calculated with COS-X)).... on


General Settings:
 Integral files         IntName         .... input_17
 Hartree-Fock type      HFTyp           .... UHF
 Total Charge           Charge          ....   -2
 Multiplicity           Mult            ....    2
 Number of Electrons    NEL             ....  233
 Basis Dimension        Dim             ....  517
 Nuclear Repulsion      ENuc            ....   3210.7907805838 Eh

Convergence Acceleration:
 DIIS                   CNVDIIS         .... on
   Start iteration      DIISMaxIt       ....    12
   Startup error        DIISStart       ....  0.200000
   # of expansion vecs  DIISMaxEq       ....     5
   Bias factor          DIISBfac        ....   1.050
   Max. coefficient     DIISMaxC        ....  10.000
 Trust-Rad. Augm. Hess. CNVTRAH         .... auto
   Auto Start mean grad. ratio tolernc. ....  1.125000
   Auto Start start iteration           ....    20
   Auto Start num. interpolation iter.  ....    10
   Max. Number of Micro iterations      ....    16
   Max. Number of Macro iterations      .... Maxiter - #DIIS iter
   Number of Davidson start vectors     ....     2
   Converg. threshold I  (grad. norm)   ....   5.000e-05
   Converg. threshold II (energy diff.) ....   1.000e-06
   Grad. Scal. Fac. for Micro threshold ....   0.100
   Minimum threshold for Micro iter.    ....   0.010
   NR start threshold (gradient norm)   ....   0.001
   Initial trust radius                 ....   0.400
   Minimum AH scaling param. (alpha)    ....   1.000
   Maximum AH scaling param. (alpha)    .... 1000.000
   Orbital update algorithm             .... Taylor
   White noise on init. David. guess    .... on
   Maximum white noise                  ....   0.010
   Quad. conv. algorithm                .... NR
 SOSCF                  CNVSOSCF        .... off
 Level Shifting         CNVShift        .... on
   Level shift para.    LevelShift      ....    0.2500
   Turn off err/grad.   ShiftErr        ....    0.0010
 Zerner damping         CNVZerner       .... off
 Static damping         CNVDamp         .... on
   Fraction old density DampFac         ....    0.7000
   Max. Damping (<1)    DampMax         ....    0.9800
   Min. Damping (>=0)   DampMin         ....    0.0000
   Turn off err/grad.   DampErr         ....    0.1000
 Fernandez-Rico         CNVRico         .... off

SCF Procedure:
 Maximum # iterations   MaxIter         ....   125
 SCF integral mode      SCFMode         .... Direct
   Integral package                     .... SHARK and LIBINT hybrid scheme
 Reset frequency        DirectResetFreq ....    20
 Integral Threshold     Thresh          ....  1.000e-10 Eh
 Primitive CutOff       TCut            ....  1.000e-11 Eh

Convergence Tolerance:
 Convergence Check Mode ConvCheckMode   .... Total+1el-Energy
 Convergence forced     ConvForced      .... 0
 Energy Change          TolE            ....  1.000e-06 Eh
 1-El. energy change                    ....  1.000e-03 Eh
 DIIS Error             TolErr          ....  1.000e-06


Diagonalization of the overlap matrix:
Smallest eigenvalue                        ... 1.936e-04
Time for diagonalization                   ...    0.153 sec
Threshold for overlap eigenvalues          ... 1.000e-08
Number of eigenvalues below threshold      ... 0
Time for construction of square roots      ...    0.080 sec
Total time needed                          ...    0.235 sec

Time for model grid setup =    0.358 sec

------------------------------
INITIAL GUESS: MODEL POTENTIAL
------------------------------
Loading Hartree-Fock densities                     ... done
Calculating cut-offs                               ... done
Initializing the effective Hamiltonian             ... done
Setting up the integral package (SHARK)            ... done
Starting the Coulomb interaction                   ... done (   0.4 sec)
Reading the grid                                   ... done
Mapping shells                                     ... done
Starting the XC term evaluation                    ... done (   0.2 sec)
  promolecular density results
     # of electrons  =    230.993977736
     EX              =   -307.537391928
     EC              =     -9.026305286
     EX+EC           =   -316.563697214
Transforming the Hamiltonian                       ... done (   0.1 sec)
Diagonalizing the Hamiltonian                      ... done (   0.1 sec)
Back transforming the eigenvectors                 ... done (   0.0 sec)
Now organizing SCF variables                       ... done
                      ------------------
                      INITIAL GUESS DONE (   1.2 sec)
                      ------------------
-------------------
DFT GRID GENERATION
-------------------

General Integration Accuracy     IntAcc      ... 4.388
Radial Grid Type                 RadialGrid  ... OptM3 with GC (2021)
Angular Grid (max. ang.)         AngularGrid ... 4 (Lebedev-302)
Angular grid pruning method      GridPruning ... 4 (adaptive)
Weight generation scheme         WeightScheme... Becke
Basis function cutoff            BFCut       ... 1.0000e-10
Integration weight cutoff        WCut        ... 1.0000e-14
Angular grids for H and He will be reduced by one unit
Partially contracted basis set               ... off
Rotationally invariant grid construction     ... off

Total number of grid points                  ...   184075
Total number of batches                      ...     2892
Average number of points per batch           ...       63
Average number of grid points per atom       ...     5752
Time for grid setup =    1.587 sec

--------------------
COSX GRID GENERATION
--------------------

GRIDX 1
-------
General Integration Accuracy     IntAcc      ... 3.816
Radial Grid Type                 RadialGrid  ... OptM3 with GC (2021)
Angular Grid (max. ang.)         AngularGrid ... 1 (Lebedev-50)
Angular grid pruning method      GridPruning ... 4 (adaptive)
Weight generation scheme         WeightScheme... Becke
Basis function cutoff            BFCut       ... 1.0000e-10
Integration weight cutoff        WCut        ... 1.0000e-14
Angular grids for H and He will be reduced by one unit
Partially contracted basis set               ... on
Rotationally invariant grid construction     ... off

Total number of grid points                  ...    22784
Total number of batches                      ...      374
Average number of points per batch           ...       60
Average number of grid points per atom       ...      712
UseSFitting                                  ... on

GRIDX 2
-------
General Integration Accuracy     IntAcc      ... 4.020
Radial Grid Type                 RadialGrid  ... OptM3 with GC (2021)
Angular Grid (max. ang.)         AngularGrid ... 2 (Lebedev-110)
Angular grid pruning method      GridPruning ... 4 (adaptive)
Weight generation scheme         WeightScheme... Becke
Basis function cutoff            BFCut       ... 1.0000e-10
Integration weight cutoff        WCut        ... 1.0000e-14
Angular grids for H and He will be reduced by one unit
Partially contracted basis set               ... on
Rotationally invariant grid construction     ... off

Total number of grid points                  ...    49125
Total number of batches                      ...      786
Average number of points per batch           ...       62
Average number of grid points per atom       ...     1535
UseSFitting                                  ... on

GRIDX 3
-------
General Integration Accuracy     IntAcc      ... 4.338
Radial Grid Type                 RadialGrid  ... OptM3 with GC (2021)
Angular Grid (max. ang.)         AngularGrid ... 3 (Lebedev-194)
Angular grid pruning method      GridPruning ... 4 (adaptive)
Weight generation scheme         WeightScheme... Becke
Basis function cutoff            BFCut       ... 1.0000e-10
Integration weight cutoff        WCut        ... 1.0000e-14
Angular grids for H and He will be reduced by one unit
Partially contracted basis set               ... on
Rotationally invariant grid construction     ... off

Total number of grid points                  ...   112098
Total number of batches                      ...     1770
Average number of points per batch           ...       63
Average number of grid points per atom       ...     3503
UseSFitting                                  ... on

Time for X-Grid setup             =    1.797 sec

--------------
SCF ITERATIONS
--------------
ITER       Energy         Delta-E        Max-DP      RMS-DP      [F,P]     Damp
               ***  Starting incremental Fock matrix formation  ***
  0  -4591.9965772251   0.000000000000 0.07144105  0.00092039  0.2378246 0.7000
  1  -4592.2767477299  -0.280170504770 0.11430411  0.00091516  0.1559098 0.7000
                               ***Turning on DIIS***
  2  -4592.4274305604  -0.150682830546 0.08094044  0.00057060  0.1090921 0.7000
  3  -4592.5084115249  -0.080980964425 0.11240667  0.00091579  0.0772076 0.0000
  4  -4592.7016870543  -0.193275529432 0.06878171  0.00048244  0.0142030 0.0000
  5  -4592.7074137045  -0.005726650248 0.01213084  0.00010504  0.0103826 0.0000
  6  -4592.7085669203  -0.001153215808 0.00258648  0.00004493  0.0030735 0.0000
  7  -4592.7087709185  -0.000203998198 0.00148408  0.00002261  0.0013087 0.0000
  8  -4592.7088417884  -0.000070869833 0.00120739  0.00001641  0.0012926 0.0000
  9  -4592.7088839635  -0.000042175117 0.00255690  0.00002468  0.0009873 0.0000
               *** Restarting incremental Fock matrix formation ***
                                   *** Resetting DIIS ***
 10  -4592.7088600122   0.000023951259 0.00128024  0.00001477  0.0008848 0.0000
 11  -4592.7088297540   0.000030258283 0.00038161  0.00000397  0.0026290 0.0000
 12  -4592.7088678724  -0.000038118399 0.00025442  0.00000364  0.0010680 0.0000
 13  -4592.7088748866  -0.000007014281 0.00077682  0.00000565  0.0004627 0.0000
 14  -4592.7088789969  -0.000004110253 0.00028161  0.00000324  0.0002068 0.0000
 15  -4592.7088799898  -0.000000992944 0.00020902  0.00000223  0.0001989 0.0000
 16  -4592.7088805594  -0.000000569599 0.00028403  0.00000220  0.0001194 0.0000
 17  -4592.7088808370  -0.000000277575 0.00016787  0.00000105  0.0000656 0.0000
 18  -4592.7088807761   0.000000060864 0.00003140  0.00000035  0.0000151 0.0000
 19  -4592.7088807952  -0.000000019014 0.00001721  0.00000020  0.0000186 0.0000
                 **** Energy Check signals convergence ****

               *****************************************************
               *                     SUCCESS                       *
               *           SCF CONVERGED AFTER  20 CYCLES          *
               *****************************************************

Old exchange energy                            =    -61.757817594 Eh
New exchange energy                            =    -61.757822045 Eh
Exchange energy change after final integration =     -0.000004451 Eh
Total energy after final integration           =  -4592.708885269 Eh
Final COS-X integration done in                =    24.791 sec

----------------
TOTAL SCF ENERGY
----------------

Total Energy       :        -4592.70888527 Eh         -124973.96232 eV

Components:
Nuclear Repulsion  :         3210.79078058 Eh           87370.05895 eV
Electronic Energy  :        -7803.49966585 Eh         -212344.02127 eV
One Electron Energy:       -12785.30954062 Eh         -347905.95980 eV
Two Electron Energy:         4981.80987477 Eh          135561.93853 eV
Max COSX asymmetry :            0.00000339 Eh               0.00009 eV

Virial components:
Potential Energy   :        -9173.73059303 Eh         -249629.90038 eV
Kinetic Energy     :         4581.02170776 Eh          124655.93805 eV
Virial Ratio       :            2.00255122


DFT components:
N(Alpha)           :      117.000138400408 electrons
N(Beta)            :      116.000137656813 electrons
N(Total)           :      233.000276057221 electrons
E(X)               :     -245.474444245596 Eh       
E(C)               :      -10.623978168830 Eh       
E(XC)              :     -256.098422414426 Eh       
DFET-embed. en.    :        0.000000000000 Eh       

---------------
SCF CONVERGENCE
---------------

  Last Energy change         ...   -2.1909e-08  Tolerance :   1.0000e-06
  Last MAX-Density change    ...    0.0000e+00  Tolerance :   1.0000e-05
  Last RMS-Density change    ...    0.0000e+00  Tolerance :   1.0000e-06
  Last DIIS Error            ...    1.0911e-05  Tolerance :   1.0000e-06

             **** THE GBW FILE WAS UPDATED (input_17.gbw) ****
             **** DENSITY input_17.scfp WAS UPDATED ****
             **** ENERGY FILE WAS UPDATED (input_17.en.tmp) ****
----------------------
UHF SPIN CONTAMINATION
----------------------

Warning: in a DFT calculation there is little theoretical justification to 
         calculate <S**2> as in Hartree-Fock theory. We will do it anyways
         but you should keep in mind that the values have only limited relevance

Expectation value of <S**2>     :     0.766074
Ideal value S*(S+1) for S=0.5   :     0.750000
Deviation                       :     0.016074

             **** THE GBW FILE WAS UPDATED (input_17.gbw) ****
             **** DENSITY input_17.scfp WAS UPDATED ****
----------------
ORBITAL ENERGIES
----------------
                 SPIN UP ORBITALS
  NO   OCC          E(Eh)            E(eV) 
   0   1.0000    -196.641642     -5350.8911 
   1   1.0000     -88.680085     -2413.1078 
   2   1.0000     -88.679909     -2413.1030 
   3   1.0000     -88.673607     -2412.9315 
   4   1.0000     -88.673516     -2412.9290 
   5   1.0000     -88.614254     -2411.3165 
   6   1.0000     -88.614185     -2411.3146 
   7   1.0000     -88.610701     -2411.2198 
   8   1.0000     -88.610678     -2411.2191 
   9   1.0000     -22.017299      -599.1212 
  10   1.0000     -18.855793      -513.0922 
  11   1.0000     -18.524153      -504.0678 
  12   1.0000     -18.518363      -503.9103 
  13   1.0000     -18.518303      -503.9086 
  14   1.0000     -10.016881      -272.5732 
  15   1.0000     -10.016759      -272.5699 
  16   1.0000     -10.016036      -272.5502 
  17   1.0000     -10.015932      -272.5474 
  18   1.0000     -10.005573      -272.2655 
  19   1.0000     -10.005438      -272.2618 
  20   1.0000      -9.993747      -271.9437 
  21   1.0000      -9.993604      -271.9398 
  22   1.0000      -9.990513      -271.8557 
  23   1.0000      -9.990427      -271.8533 
  24   1.0000      -7.733112      -210.4287 
  25   1.0000      -7.732969      -210.4248 
  26   1.0000      -7.727707      -210.2816 
  27   1.0000      -7.727629      -210.2795 
  28   1.0000      -7.668186      -208.6619 
  29   1.0000      -7.668114      -208.6600 
  30   1.0000      -7.665512      -208.5892 
  31   1.0000      -7.665423      -208.5868 
  32   1.0000      -5.698363      -155.0603 
  33   1.0000      -5.698217      -155.0564 
  34   1.0000      -5.694569      -154.9571 
  35   1.0000      -5.694419      -154.9530 
  36   1.0000      -5.692973      -154.9137 
  37   1.0000      -5.692898      -154.9116 
  38   1.0000      -5.688980      -154.8050 
  39   1.0000      -5.688905      -154.8030 
  40   1.0000      -5.687900      -154.7756 
  41   1.0000      -5.687759      -154.7718 
  42   1.0000      -5.682386      -154.6256 
  43   1.0000      -5.682303      -154.6233 
  44   1.0000      -5.633263      -153.2889 
  45   1.0000      -5.633172      -153.2864 
  46   1.0000      -5.630196      -153.2054 
  47   1.0000      -5.630121      -153.2034 
  48   1.0000      -5.626657      -153.1091 
  49   1.0000      -5.626605      -153.1077 
  50   1.0000      -5.625981      -153.0907 
  51   1.0000      -5.625906      -153.0887 
  52   1.0000      -5.623898      -153.0341 
  53   1.0000      -5.623839      -153.0324 
  54   1.0000      -5.623624      -153.0266 
  55   1.0000      -5.623547      -153.0245 
  56   1.0000      -2.410383       -65.5899 
  57   1.0000      -1.450572       -39.4721 
  58   1.0000      -1.440405       -39.1954 
  59   1.0000      -1.439150       -39.1612 
  60   1.0000      -0.643691       -17.5157 
  61   1.0000      -0.643608       -17.5135 
  62   1.0000      -0.616227       -16.7684 
  63   1.0000      -0.593952       -16.1623 
  64   1.0000      -0.593524       -16.1506 
  65   1.0000      -0.574123       -15.6227 
  66   1.0000      -0.573854       -15.6154 
  67   1.0000      -0.490708       -13.3529 
  68   1.0000      -0.488952       -13.3051 
  69   1.0000      -0.487488       -13.2652 
  70   1.0000      -0.485960       -13.2236 
  71   1.0000      -0.423285       -11.5182 
  72   1.0000      -0.420097       -11.4314 
  73   1.0000      -0.411663       -11.2019 
  74   1.0000      -0.406490       -11.0612 
  75   1.0000      -0.376368       -10.2415 
  76   1.0000      -0.373037       -10.1508 
  77   1.0000      -0.292135        -7.9494 
  78   1.0000      -0.291921        -7.9436 
  79   1.0000      -0.279521        -7.6061 
  80   1.0000      -0.279003        -7.5921 
  81   1.0000      -0.258345        -7.0299 
  82   1.0000      -0.253250        -6.8913 
  83   1.0000      -0.241553        -6.5730 
  84   1.0000      -0.238946        -6.5021 
  85   1.0000      -0.196954        -5.3594 
  86   1.0000      -0.196019        -5.3339 
  87   1.0000      -0.192231        -5.2309 
  88   1.0000      -0.186934        -5.0867 
  89   1.0000      -0.184352        -5.0165 
  90   1.0000      -0.183942        -5.0053 
  91   1.0000      -0.179084        -4.8731 
  92   1.0000      -0.152995        -4.1632 
  93   1.0000      -0.149499        -4.0681 
  94   1.0000      -0.142636        -3.8813 
  95   1.0000      -0.142048        -3.8653 
  96   1.0000      -0.138931        -3.7805 
  97   1.0000      -0.098692        -2.6855 
  98   1.0000      -0.093724        -2.5504 
  99   1.0000      -0.090106        -2.4519 
 100   1.0000      -0.082881        -2.2553 
 101   1.0000      -0.079792        -2.1712 
 102   1.0000      -0.076487        -2.0813 
 103   1.0000      -0.067433        -1.8350 
 104   1.0000      -0.050645        -1.3781 
 105   1.0000      -0.038412        -1.0453 
 106   1.0000      -0.037802        -1.0286 
 107   1.0000      -0.036056        -0.9811 
 108   1.0000      -0.032009        -0.8710 
 109   1.0000      -0.014310        -0.3894 
 110   1.0000      -0.003737        -0.1017 
 111   1.0000      -0.001396        -0.0380 
 112   1.0000       0.006858         0.1866 
 113   1.0000       0.007226         0.1966 
 114   1.0000       0.020107         0.5471 
 115   1.0000       0.033852         0.9211 
 116   1.0000       0.060172         1.6374 
 117   0.0000       0.185732         5.0540 
 118   0.0000       0.192551         5.2396 
 119   0.0000       0.196386         5.3439 
 120   0.0000       0.196470         5.3462 
 121   0.0000       0.208430         5.6717 
 122   0.0000       0.209295         5.6952 
 123   0.0000       0.218698         5.9511 
 124   0.0000       0.223661         6.0861 
 125   0.0000       0.226681         6.1683 
 126   0.0000       0.233015         6.3407 
 127   0.0000       0.239820         6.5258 
 128   0.0000       0.242329         6.5941 
 129   0.0000       0.243053         6.6138 
 130   0.0000       0.245954         6.6928 
 131   0.0000       0.246185         6.6990 
 132   0.0000       0.253795         6.9061 
 133   0.0000       0.254248         6.9184 
 134   0.0000       0.257805         7.0152 
 135   0.0000       0.261281         7.1098 
 136   0.0000       0.267067         7.2673 
 137   0.0000       0.275285         7.4909 
 138   0.0000       0.279536         7.6065 
 139   0.0000       0.279923         7.6171 
 140   0.0000       0.284940         7.7536 
 141   0.0000       0.285469         7.7680 
 142   0.0000       0.287289         7.8175 
 143   0.0000       0.294362         8.0100 
 144   0.0000       0.306439         8.3386 
 145   0.0000       0.309346         8.4177 
 146   0.0000       0.311190         8.4679 
 147   0.0000       0.319633         8.6977 
 148   0.0000       0.325978         8.8703 
 149   0.0000       0.328507         8.9391 
 150   0.0000       0.347453         9.4547 
 151   0.0000       0.360352         9.8057 
 152   0.0000       0.375068        10.2061 
 153   0.0000       0.375330        10.2132 
 154   0.0000       0.389525        10.5995 
 155   0.0000       0.392531        10.6813 
 156   0.0000       0.395802        10.7703 
 157   0.0000       0.397383        10.8134 
 158   0.0000       0.402294        10.9470 
 159   0.0000       0.412200        11.2165 
 160   0.0000       0.423016        11.5109 
 161   0.0000       0.425482        11.5779 
 162   0.0000       0.426066        11.5939 
 163   0.0000       0.429977        11.7003 
 164   0.0000       0.443808        12.0766 
 165   0.0000       0.453021        12.3273 
 166   0.0000       0.453494        12.3402 
 167   0.0000       0.455867        12.4048 
 168   0.0000       0.460580        12.5330 
 169   0.0000       0.463529        12.6133 
 170   0.0000       0.473983        12.8977 
 171   0.0000       0.474386        12.9087 
 172   0.0000       0.480342        13.0708 
 173   0.0000       0.481759        13.1093 
 174   0.0000       0.490841        13.3565 
 175   0.0000       0.495673        13.4879 
 176   0.0000       0.498698        13.5703 
 177   0.0000       0.500402        13.6166 
 178   0.0000       0.501584        13.6488 
 179   0.0000       0.511824        13.9274 
 180   0.0000       0.513503        13.9731 
 181   0.0000       0.517605        14.0848 
 182   0.0000       0.521290        14.1850 
 183   0.0000       0.522609        14.2209 
 184   0.0000       0.531785        14.4706 
 185   0.0000       0.542981        14.7753 
 186   0.0000       0.544731        14.8229 
 187   0.0000       0.550050        14.9676 
 188   0.0000       0.552313        15.0292 
 189   0.0000       0.561311        15.2740 
 190   0.0000       0.562767        15.3137 
 191   0.0000       0.564840        15.3701 
 192   0.0000       0.572731        15.5848 
 193   0.0000       0.573889        15.6163 
 194   0.0000       0.579917        15.7803 
 195   0.0000       0.584151        15.8956 
 196   0.0000       0.584239        15.8980 
 197   0.0000       0.586806        15.9678 
 198   0.0000       0.589403        16.0385 
 199   0.0000       0.592650        16.1268 
 200   0.0000       0.594603        16.1800 
 201   0.0000       0.597476        16.2581 
 202   0.0000       0.604280        16.4433 
 203   0.0000       0.604839        16.4585 
 204   0.0000       0.613473        16.6934 
 205   0.0000       0.614806        16.7297 
 206   0.0000       0.624054        16.9814 
 207   0.0000       0.625142        17.0110 
 208   0.0000       0.628370        17.0988 
 209   0.0000       0.632245        17.2043 
 210   0.0000       0.634291        17.2599 
 211   0.0000       0.642979        17.4963 
 212   0.0000       0.646575        17.5942 
 213   0.0000       0.650173        17.6921 
 214   0.0000       0.652096        17.7444 
 215   0.0000       0.657642        17.8953 
 216   0.0000       0.661372        17.9969 
 217   0.0000       0.667141        18.1538 
 218   0.0000       0.667770        18.1710 
 219   0.0000       0.671965        18.2851 
 220   0.0000       0.679270        18.4839 
 221   0.0000       0.682085        18.5605 
 222   0.0000       0.691031        18.8039 
 223   0.0000       0.707633        19.2557 
 224   0.0000       0.714424        19.4405 
 225   0.0000       0.723163        19.6783 
 226   0.0000       0.728723        19.8296 
 227   0.0000       0.734877        19.9970 
 228   0.0000       0.760349        20.6902 
 229   0.0000       0.762290        20.7430 
 230   0.0000       0.768115        20.9015 
 231   0.0000       0.774975        21.0881 
 232   0.0000       0.783475        21.3194 
 233   0.0000       0.796199        21.6657 
 234   0.0000       0.806726        21.9521 
 235   0.0000       0.838925        22.8283 
 236   0.0000       0.853278        23.2189 
 237   0.0000       0.860980        23.4285 
 238   0.0000       0.871921        23.7262 
 239   0.0000       0.884506        24.0686 
 240   0.0000       0.892447        24.2847 
 241   0.0000       0.905512        24.6402 
 242   0.0000       0.906758        24.6742 
 243   0.0000       0.912367        24.8268 
 244   0.0000       0.918248        24.9868 
 245   0.0000       0.924169        25.1479 
 246   0.0000       0.931689        25.3526 
 247   0.0000       0.951418        25.8894 
 248   0.0000       0.958607        26.0850 
 249   0.0000       0.962112        26.1804 
 250   0.0000       0.978342        26.6220 
 251   0.0000       0.980279        26.6747 
 252   0.0000       0.982597        26.7378 
 253   0.0000       0.989284        26.9198 
 254   0.0000       0.993602        27.0373 
 255   0.0000       0.994389        27.0587 
 256   0.0000       1.008771        27.4500 
 257   0.0000       1.011151        27.5148 
 258   0.0000       1.023888        27.8614 
 259   0.0000       1.029429        28.0122 
 260   0.0000       1.053689        28.6723 
 261   0.0000       1.058268        28.7969 
 262   0.0000       1.063958        28.9518 
 263   0.0000       1.066595        29.0235 
 264   0.0000       1.076667        29.2976 
 265   0.0000       1.083122        29.4732 
 266   0.0000       1.092512        29.7288 
 267   0.0000       1.107520        30.1372 
 268   0.0000       1.111422        30.2433 
 269   0.0000       1.118561        30.4376 
 270   0.0000       1.120017        30.4772 
 271   0.0000       1.131891        30.8003 
 272   0.0000       1.136477        30.9251 
 273   0.0000       1.141220        31.0542 
 274   0.0000       1.142528        31.0898 
 275   0.0000       1.149752        31.2864 
 276   0.0000       1.155909        31.4539 
 277   0.0000       1.169482        31.8232 
 278   0.0000       1.179663        32.1003 
 279   0.0000       1.186273        32.2801 
 280   0.0000       1.203840        32.7582 
 281   0.0000       1.240738        33.7622 
 282   0.0000       1.244165        33.8555 
 283   0.0000       1.269808        34.5532 
 284   0.0000       1.274506        34.6811 
 285   0.0000       1.280243        34.8372 
 286   0.0000       1.293999        35.2115 
 287   0.0000       1.302388        35.4398 
 288   0.0000       1.320961        35.9452 
 289   0.0000       1.354140        36.8480 
 290   0.0000       1.359083        36.9825 
 291   0.0000       1.359455        36.9927 
 292   0.0000       1.378181        37.5022 
 293   0.0000       1.407882        38.3104 
 294   0.0000       1.413108        38.4526 
 295   0.0000       1.427830        38.8532 
 296   0.0000       1.440851        39.2076 
 297   0.0000       1.444157        39.2975 
 298   0.0000       1.455996        39.6197 
 299   0.0000       1.471691        40.0467 
 300   0.0000       1.473269        40.0897 
 301   0.0000       1.481355        40.3097 
 302   0.0000       1.484270        40.3890 
 303   0.0000       1.491784        40.5935 
 304   0.0000       1.493131        40.6302 
 305   0.0000       1.520891        41.3855 
 306   0.0000       1.522893        41.4400 
 307   0.0000       1.528484        41.5922 
 308   0.0000       1.547699        42.1150 
 309   0.0000       1.549939        42.1760 
 310   0.0000       1.564199        42.5640 
 311   0.0000       1.565400        42.5967 
 312   0.0000       1.602776        43.6138 
 313   0.0000       1.603764        43.6406 
 314   0.0000       1.612638        43.8821 
 315   0.0000       1.616933        43.9990 
 316   0.0000       1.625349        44.2280 
 317   0.0000       1.635446        44.5028 
 318   0.0000       1.653550        44.9954 
 319   0.0000       1.659226        45.1498 
 320   0.0000       1.663141        45.2564 
 321   0.0000       1.680879        45.7391 
 322   0.0000       1.683045        45.7980 
 323   0.0000       1.690799        46.0090 
 324   0.0000       1.707117        46.4530 
 325   0.0000       1.712551        46.6009 
 326   0.0000       1.728407        47.0323 
 327   0.0000       1.739862        47.3440 
 328   0.0000       1.742134        47.4059 
 329   0.0000       1.750492        47.6333 
 330   0.0000       1.755854        47.7792 
 331   0.0000       1.770580        48.1799 
 332   0.0000       1.776646        48.3450 
 333   0.0000       1.777884        48.3787 
 334   0.0000       1.779245        48.4157 
 335   0.0000       1.810334        49.2617 
 336   0.0000       1.819491        49.5109 
 337   0.0000       1.825596        49.6770 
 338   0.0000       1.830189        49.8020 
 339   0.0000       1.838555        50.0296 
 340   0.0000       1.841741        50.1163 
 341   0.0000       1.847859        50.2828 
 342   0.0000       1.851259        50.3753 
 343   0.0000       1.855803        50.4990 
 344   0.0000       1.857724        50.5512 
 345   0.0000       1.879566        51.1456 
 346   0.0000       1.880217        51.1633 
 347   0.0000       1.920298        52.2540 
 348   0.0000       1.923934        52.3529 
 349   0.0000       1.930487        52.5312 
 350   0.0000       1.937779        52.7296 
 351   0.0000       1.949165        53.0395 
 352   0.0000       1.949632        53.0522 
 353   0.0000       1.965232        53.4767 
 354   0.0000       1.965407        53.4814 
 355   0.0000       1.970016        53.6069 
 356   0.0000       1.970448        53.6186 
 357   0.0000       2.005739        54.5789 
 358   0.0000       2.008498        54.6540 
 359   0.0000       2.045109        55.6502 
 360   0.0000       2.051442        55.8226 
 361   0.0000       2.063925        56.1622 
 362   0.0000       2.064840        56.1872 
 363   0.0000       2.075846        56.4866 
 364   0.0000       2.076863        56.5143 
 365   0.0000       2.103199        57.2310 
 366   0.0000       2.106791        57.3287 
 367   0.0000       2.116607        57.5958 
 368   0.0000       2.123783        57.7911 
 369   0.0000       2.136031        58.1244 
 370   0.0000       2.145804        58.3903 
 371   0.0000       2.169633        59.0387 
 372   0.0000       2.171407        59.0870 
 373   0.0000       2.176027        59.2127 
 374   0.0000       2.186533        59.4986 
 375   0.0000       2.194915        59.7267 
 376   0.0000       2.208454        60.0951 
 377   0.0000       2.226571        60.5881 
 378   0.0000       2.228590        60.6430 
 379   0.0000       2.235867        60.8410 
 380   0.0000       2.237124        60.8753 
 381   0.0000       2.242917        61.0329 
 382   0.0000       2.244951        61.0882 
 383   0.0000       2.258605        61.4598 
 384   0.0000       2.275692        61.9247 
 385   0.0000       2.276551        61.9481 
 386   0.0000       2.288149        62.2637 
 387   0.0000       2.292489        62.3818 
 388   0.0000       2.299155        62.5632 
 389   0.0000       2.310077        62.8604 
 390   0.0000       2.319267        63.1105 
 391   0.0000       2.346430        63.8496 
 392   0.0000       2.349802        63.9414 
 393   0.0000       2.355941        64.1084 
 394   0.0000       2.396975        65.2250 
 395   0.0000       2.400706        65.3265 
 396   0.0000       2.407301        65.5060 
 397   0.0000       2.414353        65.6979 
 398   0.0000       2.419270        65.8317 
 399   0.0000       2.446257        66.5660 
 400   0.0000       2.447352        66.5958 
 401   0.0000       2.469584        67.2008 
 402   0.0000       2.470148        67.2161 
 403   0.0000       2.508010        68.2464 
 404   0.0000       2.516041        68.4650 
 405   0.0000       2.520572        68.5883 
 406   0.0000       2.523843        68.6773 
 407   0.0000       2.542313        69.1799 
 408   0.0000       2.549124        69.3652 
 409   0.0000       2.551842        69.4392 
 410   0.0000       2.552184        69.4484 
 411   0.0000       2.592222        70.5379 
 412   0.0000       2.605299        70.8938 
 413   0.0000       2.610426        71.0333 
 414   0.0000       2.617504        71.2259 
 415   0.0000       2.622072        71.3502 
 416   0.0000       2.636648        71.7468 
 417   0.0000       2.640491        71.8514 
 418   0.0000       2.665651        72.5360 
 419   0.0000       2.667024        72.5734 
 420   0.0000       2.675029        72.7912 
 421   0.0000       2.677861        72.8683 
 422   0.0000       2.708809        73.7104 
 423   0.0000       2.710546        73.7577 
 424   0.0000       2.758234        75.0554 
 425   0.0000       2.761220        75.1366 
 426   0.0000       2.765659        75.2574 
 427   0.0000       2.769512        75.3622 
 428   0.0000       2.790856        75.9431 
 429   0.0000       2.798113        76.1405 
 430   0.0000       2.818347        76.6911 
 431   0.0000       2.818732        76.7016 
 432   0.0000       2.852161        77.6112 
 433   0.0000       2.855072        77.6905 
 434   0.0000       2.868874        78.0660 
 435   0.0000       2.869649        78.0871 
 436   0.0000       2.894081        78.7519 
 437   0.0000       2.906100        79.0790 
 438   0.0000       2.907179        79.1084 
 439   0.0000       2.913515        79.2808 
 440   0.0000       2.916096        79.3510 
 441   0.0000       2.939527        79.9886 
 442   0.0000       2.943618        80.0999 
 443   0.0000       2.954188        80.3875 
 444   0.0000       2.971453        80.8574 
 445   0.0000       3.009521        81.8932 
 446   0.0000       3.013822        82.0103 
 447   0.0000       3.021360        82.2154 
 448   0.0000       3.031680        82.4962 
 449   0.0000       3.065422        83.4144 
 450   0.0000       3.066105        83.4330 
 451   0.0000       3.182330        86.5956 
 452   0.0000       3.183871        86.6375 
 453   0.0000       3.326244        90.5117 
 454   0.0000       3.327168        90.5369 
 455   0.0000       3.396081        92.4121 
 456   0.0000       3.427461        93.2660 
 457   0.0000       3.442345        93.6710 
 458   0.0000       3.442487        93.6748 
 459   0.0000       3.478341        94.6505 
 460   0.0000       3.478702        94.6603 
 461   0.0000       3.516625        95.6922 
 462   0.0000       3.517615        95.7192 
 463   0.0000       3.534979        96.1917 
 464   0.0000       3.535382        96.2026 
 465   0.0000       3.556585        96.7796 
 466   0.0000       3.557692        96.8097 
 467   0.0000       3.593528        97.7849 
 468   0.0000       3.593897        97.7949 
 469   0.0000       3.799306       103.3844 
 470   0.0000       3.840592       104.5078 
 471   0.0000       3.859045       105.0099 
 472   0.0000       3.994921       108.7073 
 473   0.0000       4.215033       114.6969 
 474   0.0000       4.541780       123.5881 
 475   0.0000       4.558711       124.0488 
 476   0.0000       4.561485       124.1243 
 477   0.0000       4.589205       124.8786 
 478   0.0000       4.613164       125.5306 
 479   0.0000       4.613515       125.5401 
 480   0.0000       5.164932       140.5450 
 481   0.0000       7.005033       190.6166 
 482   0.0000       7.055225       191.9824 
 483   0.0000       7.055899       192.0008 
 484   0.0000      18.725364       509.5431 
 485   0.0000      18.768014       510.7036 
 486   0.0000      18.982924       516.5516 
 487   0.0000      19.018458       517.5186 
 488   0.0000      19.022498       517.6285 
 489   0.0000      19.069081       518.8961 
 490   0.0000      19.243036       523.6296 
 491   0.0000      19.321515       525.7652 
 492   0.0000      19.768470       537.9274 
 493   0.0000      21.675906       589.8314 
 494   0.0000      21.707050       590.6789 
[...]
Total number of batches                      ...      238
Average number of points per batch           ...       58
Average number of grid points per atom       ...      437

Memory available               ... 849.8 MB
Memory needed per perturbation ...  34.9 MB
Perturbations treated per batch... 3
Number of batches              ... 1
     CP-SCF ITERATION   0:   4.5553e-02 (   5.5 sec   0/  3 done)
     CP-SCF ITERATION   1:   1.8744e-03 (   5.6 sec   0/  3 done)
     CP-SCF ITERATION   2:   4.0077e-04 (   5.6 sec   3/  3 done)
                    *** THE CP-SCF HAS CONVERGED ***

Forming final perturbed densities           ... done
Transforming perturbed density to AO basis  ... done

 Raw HFC matrix (all values in MHz): 
 -----------------------------------
                 0.3665               0.2370              -0.7122
                 0.2366              -0.4186              -0.2112
                -0.7136              -0.2122               0.0339

 A(FC)          -0.0055              -0.0055              -0.0055
 A(SD)          -0.4806              -0.5364               1.0170
 A(ORB+DIA)      0.0035               0.0033              -0.0085    A(PC) =  -0.0006
 A(ORB)          0.0035               0.0034              -0.0087    A(PC) =  -0.0006
 A(DIA)         -0.0000              -0.0001               0.0002    A(PC) =   0.0000
             ----------           ----------           ----------
 A(Tot)         -0.4826              -0.5386               1.0030    A(iso)=   -0.0061
 Orientation: 
  X           0.3765729            0.5254356           -0.7629615
  Y          -0.9150584            0.3393815           -0.2179181
  Z           0.1444331            0.7802164            0.6086062

Notes:  (1) The A matrix conforms to the "SAI" spin Hamiltonian convention.
        (2) Tensor is right-handed.

 Raw EFG matrix (all values in a.u.**-3):
 -----------------------------------
            -0.1311      -0.0485       0.0233
            -0.0485       0.2123      -0.1481
             0.0233      -0.1481      -0.0813

 V(El)       0.5059       0.5087      -1.0145
 V(Nuc)     -0.6426      -0.6530       1.2956
         ----------   ----------   ----------
 V(Tot)     -0.1368      -0.1443       0.2811 
 Orientation: 
  X       0.9021512   -0.4115525    0.1294129
  Y       0.2686498    0.3011967   -0.9149360
  Z       0.3375654    0.8601774    0.3822885

Note: Tensor is right-handed


 Quadrupole tensor eigenvalues (in MHz;Q= 0.0029 I=  1.0)
  e**2qQ            =     0.188739 MHz 
  e**2qQ/(4I*(2I-1))=     0.047185 MHz 
  eta               =     0.026702
  NOTE: the diagonal representation of the SH term I*Q*I = e**2qQ/(4I(2I-1))*[-(1-eta),-(1+eta),2]

 RHO(0)=      0.439293673 a.u.**-3

 -----------------------------------------------------------
 Nucleus  31H : A:ISTP=    1 I=  0.5 P=533.5514 MHz/au**3
                Q:ISTP=    2 I=  1.0 Q=  0.0029 barn     
 -----------------------------------------------------------
 Solving for nuclear perturbation:
Forming RHS of the CP-SCF equations         ... 
Calc. nucleus orbit integrals (SHARK)       ... done

------------------------------------------------------------------------------
                           ORCA CP-SCF CALCULATION
------------------------------------------------------------------------------

Input orbitals are from        ... input_17.gbw
Input Perturbation             ... input_17.pin.tmp
Wavefunction output            ... input_17.pout.tmp
Perturbation mode              ... Imaginary perturbation
Solver                         ... POPLE
Max. number of iterations      ... 64
Convergence tolerance          ... 1.000e-03
Integral handling              ... Direct
DFT GridXC                     ... 1
COSX GridX                     ... 1
COSX IntAccX                   ... 3.067
COSX Algorithm                 ... Auto
Number of perturbations        ... 3
Number of operators            ... 2
Orbital ranges used for CP-SCF:
 Operator 0:  Orbitals   0...116  to 117...516
 Operator 1:  Orbitals   0...115  to 116...516
Variables per perturbation     ... 93316
DFT calculation                         ... on
XC functional terms                     ... off
Hybrid DFT                              ... on
   Exchange mixing (SCF)                ...  0.200
   Exchange mixing (CP-SCF)             ...  0.200
   GGA exch. scaling(SCF)               ...  0.720
   GGA exch. scaling (CP-SCF)           ...  0.720
   GGA corr. scaling (SCF)              ...  0.810
   GGA corr. scaling (CP-SCF)           ...  0.810

CP-SCF GRID
-----------

General Integration Accuracy     IntAcc      ... 3.467
Radial Grid Type                 RadialGrid  ... OptM3 with GC (2021)
Angular Grid (max. ang.)         AngularGrid ... 1 (Lebedev-50)
Angular grid pruning method      GridPruning ... 4 (adaptive)
Weight generation scheme         WeightScheme... Becke
Basis function cutoff            BFCut       ... 1.0000e-10
Integration weight cutoff        WCut        ... 1.0000e-14
Angular grids for H and He will be reduced by one unit
Partially contracted basis set               ... off
Rotationally invariant grid construction     ... off

Total number of grid points                  ...    31422
Total number of batches                      ...      502
Average number of points per batch           ...       62
Average number of grid points per atom       ...      982

CP-SCF GRIDX
------------

General Integration Accuracy     IntAcc      ... 3.067
Radial Grid Type                 RadialGrid  ... OptM3 with GC (2021)
Angular Grid (max. ang.)         AngularGrid ... 1 (Lebedev-50)
Angular grid pruning method      GridPruning ... 4 (adaptive)
Weight generation scheme         WeightScheme... Becke
Basis function cutoff            BFCut       ... 1.0000e-10
Integration weight cutoff        WCut        ... 1.0000e-14
Angular grids for H and He will be reduced by one unit
Partially contracted basis set               ... on
Rotationally invariant grid construction     ... off

Total number of grid points                  ...    13985
Total number of batches                      ...      238
Average number of points per batch           ...       58
Average number of grid points per atom       ...      437

Memory available               ... 846.7 MB
Memory needed per perturbation ...  34.9 MB
Perturbations treated per batch... 3
Number of batches              ... 1
     CP-SCF ITERATION   0:   4.5359e-02 (   5.5 sec   0/  3 done)
     CP-SCF ITERATION   1:   1.2677e-03 (   5.6 sec   0/  3 done)
     CP-SCF ITERATION   2:   2.2121e-04 (   5.6 sec   3/  3 done)
                    *** THE CP-SCF HAS CONVERGED ***

Forming final perturbed densities           ... done
Transforming perturbed density to AO basis  ... done

 Raw HFC matrix (all values in MHz): 
 -----------------------------------
                 0.0289               0.1602              -0.3461
                 0.1606              -0.1951              -0.1744
                -0.3469              -0.1747               0.1188

 A(FC)          -0.0157              -0.0157              -0.0157
 A(SD)          -0.2566              -0.2670               0.5235
 A(ORB+DIA)      0.0017               0.0021              -0.0042    A(PC) =  -0.0001
 A(ORB)          0.0018               0.0021              -0.0043    A(PC) =  -0.0001
 A(DIA)         -0.0001              -0.0000               0.0001    A(PC) =   0.0000
             ----------           ----------           ----------
 A(Tot)         -0.2705              -0.2805               0.5036    A(iso)=   -0.0158
 Orientation: 
  X           0.3701092            0.6858419            0.6266100
  Y           0.6788955           -0.6601014            0.3215074
  Z           0.6341293            0.3064099           -0.7099246

Notes:  (1) The A matrix conforms to the "SAI" spin Hamiltonian convention.
        (2) Tensor is right-handed.

 Raw EFG matrix (all values in a.u.**-3):
 -----------------------------------
            -0.0987      -0.0022      -0.1214
            -0.0022      -0.1469       0.0118
            -0.1214       0.0118       0.2456

 V(El)       0.5224       0.8351      -1.3576
 V(Nuc)     -0.6594      -0.9826       1.6419
         ----------   ----------   ----------
 V(Tot)     -0.1369      -0.1474       0.2844 
 Orientation: 
  X      -0.9447263   -0.1274553    0.3020717
  Y      -0.1423413    0.9894301   -0.0276936
  Z      -0.2953492   -0.0691601   -0.9528829

Note: Tensor is right-handed


 Quadrupole tensor eigenvalues (in MHz;Q= 0.0029 I=  1.0)
  e**2qQ            =     0.190951 MHz 
  e**2qQ/(4I*(2I-1))=     0.047738 MHz 
  eta               =     0.037014
  NOTE: the diagonal representation of the SH term I*Q*I = e**2qQ/(4I(2I-1))*[-(1-eta),-(1+eta),2]

 RHO(0)=      0.443805750 a.u.**-3

 -----------------------------------------------------------
 Nucleus   0V : A:ISTP=   51 I=  3.5 P=140.5173 MHz/au**3
                Q:ISTP=   51 I=  3.5 Q= -0.0430 barn     
 -----------------------------------------------------------
 Solving for nuclear perturbation:
Forming RHS of the CP-SCF equations         ... 
Calc. nucleus orbit integrals (SHARK)       ... done

------------------------------------------------------------------------------
                           ORCA CP-SCF CALCULATION
------------------------------------------------------------------------------

Input orbitals are from        ... input_17.gbw
Input Perturbation             ... input_17.pin.tmp
Wavefunction output            ... input_17.pout.tmp
Perturbation mode              ... Imaginary perturbation
Solver                         ... POPLE
Max. number of iterations      ... 64
Convergence tolerance          ... 1.000e-03
Integral handling              ... Direct
DFT GridXC                     ... 1
COSX GridX                     ... 1
COSX IntAccX                   ... 3.067
COSX Algorithm                 ... Auto
Number of perturbations        ... 3
Number of operators            ... 2
Orbital ranges used for CP-SCF:
 Operator 0:  Orbitals   0...116  to 117...516
 Operator 1:  Orbitals   0...115  to 116...516
Variables per perturbation     ... 93316
DFT calculation                         ... on
XC functional terms                     ... off
Hybrid DFT                              ... on
   Exchange mixing (SCF)                ...  0.200
   Exchange mixing (CP-SCF)             ...  0.200
   GGA exch. scaling(SCF)               ...  0.720
   GGA exch. scaling (CP-SCF)           ...  0.720
   GGA corr. scaling (SCF)              ...  0.810
   GGA corr. scaling (CP-SCF)           ...  0.810

CP-SCF GRID
-----------

General Integration Accuracy     IntAcc      ... 3.467
Radial Grid Type                 RadialGrid  ... OptM3 with GC (2021)
Angular Grid (max. ang.)         AngularGrid ... 1 (Lebedev-50)
Angular grid pruning method      GridPruning ... 4 (adaptive)
Weight generation scheme         WeightScheme... Becke
Basis function cutoff            BFCut       ... 1.0000e-10
Integration weight cutoff        WCut        ... 1.0000e-14
Angular grids for H and He will be reduced by one unit
Partially contracted basis set               ... off
Rotationally invariant grid construction     ... off

Total number of grid points                  ...    31422
Total number of batches                      ...      502
Average number of points per batch           ...       62
Average number of grid points per atom       ...      982

CP-SCF GRIDX
------------

General Integration Accuracy     IntAcc      ... 3.067
Radial Grid Type                 RadialGrid  ... OptM3 with GC (2021)
Angular Grid (max. ang.)         AngularGrid ... 1 (Lebedev-50)
Angular grid pruning method      GridPruning ... 4 (adaptive)
Weight generation scheme         WeightScheme... Becke
Basis function cutoff            BFCut       ... 1.0000e-10
Integration weight cutoff        WCut        ... 1.0000e-14
Angular grids for H and He will be reduced by one unit
Partially contracted basis set               ... on
Rotationally invariant grid construction     ... off

Total number of grid points                  ...    13985
Total number of batches                      ...      238
Average number of points per batch           ...       58
Average number of grid points per atom       ...      437

Memory available               ... 843.5 MB
Memory needed per perturbation ...  34.9 MB
Perturbations treated per batch... 3
Number of batches              ... 1
     CP-SCF ITERATION   0:   1.2230e+01 (   5.8 sec   0/  3 done)
     CP-SCF ITERATION   1:   1.8881e+00 (   5.6 sec   0/  3 done)
     CP-SCF ITERATION   2:   3.4437e-01 (   5.6 sec   0/  3 done)
     CP-SCF ITERATION   3:   6.8135e-02 (   5.6 sec   0/  3 done)
     CP-SCF ITERATION   4:   1.5056e-02 (   5.6 sec   0/  3 done)
     CP-SCF ITERATION   5:   2.5294e-03 (   5.6 sec   0/  3 done)
     CP-SCF ITERATION   6:   3.9331e-04 (   5.6 sec   3/  3 done)
                    *** THE CP-SCF HAS CONVERGED ***

Forming final perturbed densities           ... done
Transforming perturbed density to AO basis  ... done

 Raw HFC matrix (all values in MHz): 
 -----------------------------------
              -314.6768             114.1952               8.2615
               114.1069            -134.5285               3.4910
                 8.2056               3.5251             -69.7066

 A(FC)        -161.6310            -161.6310            -161.6310
 A(SD)         102.1757              86.9265            -189.1021
 A(ORB+DIA)     -6.6565              -7.9685             -19.3937    A(PC) = -11.3396
 A(ORB)         -6.6561              -7.9690             -19.3936    A(PC) = -11.3396
 A(DIA)         -0.0004               0.0005              -0.0001    A(PC) =  -0.0000
             ----------           ----------           ----------
 A(Tot)        -66.1119             -82.6731            -370.1269    A(iso)= -172.9706
 Orientation: 
  X           0.2164703           -0.3787397            0.8998316
  Y           0.4068982           -0.8028188           -0.4357934
  Z           0.8874539            0.4604762           -0.0196779

Notes:  (1) The A matrix conforms to the "SAI" spin Hamiltonian convention.
        (2) Tensor is right-handed.

 Raw EFG matrix (all values in a.u.**-3):
 -----------------------------------
             0.1278      -0.2683      -0.1904
            -0.2683      -0.0135       0.1446
            -0.1904       0.1446      -0.1143

 V(El)      -0.3585      -0.2092       0.5677
 V(Nuc)      0.1415      -0.0118      -0.1296
         ----------   ----------   ----------
 V(Tot)     -0.2170      -0.2211       0.4381 
 Orientation: 
  X      -0.0125870    0.6859530    0.7275370
  Y       0.5679831    0.6037218   -0.5593882
  Z      -0.8229440    0.4061877   -0.3972088

Note: Tensor is right-handed


 Quadrupole tensor eigenvalues (in MHz;Q=-0.0430 I=  3.5)
  e**2qQ            =    -4.426347 MHz 
  e**2qQ/(4I*(2I-1))=    -0.052695 MHz 
  eta               =     0.009154
  NOTE: the diagonal representation of the SH term I*Q*I = e**2qQ/(4I(2I-1))*[-(1-eta),-(1+eta),2]

 RHO(0)=   8115.186794768 a.u.**-3


--------------------------------------------------------------------------------
----------------------------------------------------------------------------
                           ORCA EULER ANGLE PROGRAM
----------------------------------------------------------------------------

Only g-tensor available        -->  using g-tensor as reference tensor

Reference tensor               ...  g

g-tensor ordering              ...  |g_min> --> |gx>
                                    |g_mid> --> |gy>
                                    |g_max> --> |gz>

A- and EFG-tensor ordering     ...  the axes |Ax>, |Qx>, |Ay>, etc. are assigned
                                    such that the Euler rotation is minimal. You
                                    can find the respective eigenvalues as Ax,
                                    EFGx, Ay, etc. in the tables below.
                                    The relation of |Ax>, |Ay>,  etc. to Amin, Amid, etc.
                                    (as printed in the ORCA EPR/NMR CALCULATION Output)
                                    is obtained in the detailed printout.

Euler rotation around          ...  z - y - z
   First rotation              -->  by alpha around z
   Second rotation             -->  by beta around y'
   Third rotation              -->  by gamma around z''
   Positive / Negative angle   -->  clockwise / counterclockwise rotation

Plot EFG-tensors                    (-)
Plot HFC-tensors                    (-)
Detailed Printout                   (-)

-------------------------------------------------------------------------
          Euler rotation of hyperfine tensor to g-tensor
-------------------------------------------------------------------------

-------------------------------------------------------------------
 Atom  |   Alpha    Beta    Gamma   |   Ax       Ay       Az 
       |          [degrees]         |           [MHz]         
-------------------------------------------------------------------
 19H      -13.4     36.3    -30.8      -0.51     0.80    -0.53
 20H     -137.1     21.0    109.7      -0.26     0.49    -0.24
 21H       10.7     32.4    -41.1      -0.14     0.44    -0.15
 22H      176.7     35.3    164.3      -0.22     0.45    -0.22
 23H       82.3     24.1   -106.9      -0.28     0.50    -0.27
 24H      126.2     25.4   -166.0      -0.48     1.01    -0.54
 26H      134.6     18.9   -106.3      -0.26     0.50    -0.24
 27H       13.5     33.1     30.8      -0.51     0.80    -0.53
 28H     -175.7     43.3   -164.2      -0.22     0.45    -0.22
 29H      -11.9     33.1     42.8      -0.14     0.45    -0.15
 30H     -123.4     25.5    164.1      -0.48     1.00    -0.54
 31H      -82.6     25.0    108.0      -0.28     0.50    -0.27
  0V     -174.8      6.4    175.3    -370.13   -82.67   -66.11
-------------------------------------------------------------------


-------------------------------------------------------------------------------
    Euler rotation of Electric Field Gradient (EFG) tensor to g-tensor
-------------------------------------------------------------------------------

-------------------------------------------------------------------
 Atom  |   Alpha    Beta    Gamma  |   EFGx     EFGy     EFGz
       |          [degrees]        |         [a.u.**-3]       
-------------------------------------------------------------------
 19H      -17.3     11.5     54.9     -0.14     0.28    -0.14
 20H      148.1     42.1   -118.2     -0.14    -0.14     0.28
 21H     -169.6     14.0   -170.8      0.28    -0.14    -0.13
 22H     -116.3      8.8    151.5     -0.15     0.29    -0.14
 23H      -41.2     35.2     68.7     -0.14    -0.15     0.28
 24H       -7.7     31.7     36.8     -0.14     0.28    -0.14
 26H     -147.5     43.0    118.0     -0.14    -0.14     0.28
 27H       10.1     12.8    -47.1     -0.14     0.28    -0.14
 28H      124.3      8.0   -159.0     -0.15     0.29    -0.14
 29H      173.9     13.6    167.2      0.28    -0.14    -0.13
 30H        5.8     31.5    -34.8     -0.14     0.28    -0.14
 31H       40.3     34.3    -67.4     -0.14    -0.15     0.28
  0V     -137.4     45.1    127.7      0.44    -0.22    -0.22
-------------------------------------------------------------------


Maximum memory used throughout the entire EPRNMR-calculation: 245.2 MB

Timings for individual modules:

Sum of individual times         ...     2644.606 sec (=  44.077 min)
GTO integral calculation        ...        1.430 sec (=   0.024 min)   0.1 %
Spin-Orbit-Coupling Matrices    ...       11.168 sec (=   0.186 min)   0.4 %
SCF iterations                  ...      264.707 sec (=   4.412 min)  10.0 %
EPR/NMR calculation             ...     2367.301 sec (=  39.455 min)  89.5 %
                             ****ORCA TERMINATED NORMALLY****
TOTAL RUN TIME: 0 days 0 hours 44 minutes 5 seconds 729 msec
