
                                 *****************
                                 * O   R   C   A *
                                 *****************

                                            #,                                       
                                            ###                                      
                                            ####                                     
                                            #####                                    
                                            ######                                   
                                           ########,                                 
                                     ,,################,,,,,                         
                               ,,#################################,,                 
                          ,,##########################################,,             
                       ,#########################################, ''#####,          
                    ,#############################################,,   '####,        
                  ,##################################################,,,,####,       
                ,###########''''           ''''###############################       
              ,#####''   ,,,,##########,,,,          '''####'''          '####       
            ,##' ,,,,###########################,,,                        '##       
           ' ,,###''''                  '''############,,,                           
         ,,##''                                '''############,,,,        ,,,,,,###''
      ,#''                                            '''#######################'''  
     '                                                          ''''####''''         
             ,#######,   #######,   ,#######,      ##                                
            ,#'     '#,  ##    ##  ,#'     '#,    #''#        ######   ,####,        
            ##       ##  ##   ,#'  ##            #'  '#       #        #'  '#        
            ##       ##  #######   ##           ,######,      #####,   #    #        
            '#,     ,#'  ##    ##  '#,     ,#' ,#      #,         ##   #,  ,#        
             '#######'   ##     ##  '#######'  #'      '#     #####' # '####'        



                  #######################################################
                  #                        -***-                        #
                  #          Department of theory and spectroscopy      #
                  #    Directorship and core code : Frank Neese         #
                  #        Max Planck Institute fuer Kohlenforschung    #
                  #                Kaiser Wilhelm Platz 1               #
                  #                 D-45470 Muelheim/Ruhr               #
                  #                      Germany                        #
                  #                                                     #
                  #                  All rights reserved                #
                  #                        -***-                        #
                  #######################################################


                         Program Version 5.0.4 -  RELEASE  -


 With contributions from (in alphabetic order):
   Daniel Aravena         : Magnetic Suceptibility
   Michael Atanasov       : Ab Initio Ligand Field Theory (pilot matlab implementation)
   Alexander A. Auer      : GIAO ZORA, VPT2 properties, NMR spectrum
   Ute Becker             : Parallelization
   Giovanni Bistoni       : ED, misc. LED, open-shell LED, HFLD
   Martin Brehm           : Molecular dynamics
   Dmytro Bykov           : SCF Hessian
   Vijay G. Chilkuri      : MRCI spin determinant printing, contributions to CSF-ICE
   Dipayan Datta          : RHF DLPNO-CCSD density
   Achintya Kumar Dutta   : EOM-CC, STEOM-CC
   Dmitry Ganyushin       : Spin-Orbit,Spin-Spin,Magnetic field MRCI
   Miquel Garcia          : C-PCM and meta-GGA Hessian, CC/C-PCM, Gaussian charge scheme
   Yang Guo               : DLPNO-NEVPT2, F12-NEVPT2, CIM, IAO-localization
   Andreas Hansen         : Spin unrestricted coupled pair/coupled cluster methods
   Benjamin Helmich-Paris : MC-RPA, TRAH-SCF, COSX integrals
   Lee Huntington         : MR-EOM, pCC
   Robert Izsak           : Overlap fitted RIJCOSX, COSX-SCS-MP3, EOM
   Marcus Kettner         : VPT2
   Christian Kollmar      : KDIIS, OOCD, Brueckner-CCSD(T), CCSD density, CASPT2, CASPT2-K
   Simone Kossmann        : Meta GGA functionals, TD-DFT gradient, OOMP2, MP2 Hessian
   Martin Krupicka        : Initial AUTO-CI
   Lucas Lang             : DCDCAS
   Marvin Lechner         : AUTO-CI (C++ implementation), FIC-MRCC
   Dagmar Lenk            : GEPOL surface, SMD
   Dimitrios Liakos       : Extrapolation schemes; Compound Job, initial MDCI parallelization
   Dimitrios Manganas     : Further ROCIS development; embedding schemes
   Dimitrios Pantazis     : SARC Basis sets
   Anastasios Papadopoulos: AUTO-CI, single reference methods and gradients
   Taras Petrenko         : DFT Hessian,TD-DFT gradient, ASA, ECA, R-Raman, ABS, FL, XAS/XES, NRVS
   Peter Pinski           : DLPNO-MP2, DLPNO-MP2 Gradient
   Christoph Reimann      : Effective Core Potentials
   Marius Retegan         : Local ZFS, SOC
   Christoph Riplinger    : Optimizer, TS searches, QM/MM, DLPNO-CCSD(T), (RO)-DLPNO pert. Triples
   Tobias Risthaus        : Range-separated hybrids, TD-DFT gradient, RPA, STAB
   Michael Roemelt        : Original ROCIS implementation
   Masaaki Saitow         : Open-shell DLPNO-CCSD energy and density
   Barbara Sandhoefer     : DKH picture change effects
   Avijit Sen             : IP-ROCIS
   Kantharuban Sivalingam : CASSCF convergence, NEVPT2, FIC-MRCI
   Bernardo de Souza      : ESD, SOC TD-DFT
   Georgi Stoychev        : AutoAux, RI-MP2 NMR, DLPNO-MP2 response
   Willem Van den Heuvel  : Paramagnetic NMR
   Boris Wezisla          : Elementary symmetry handling
   Frank Wennmohs         : Technical directorship


 We gratefully acknowledge several colleagues who have allowed us to
 interface, adapt or use parts of their codes:
   Stefan Grimme, W. Hujo, H. Kruse, P. Pracht,  : VdW corrections, initial TS optimization,
                  C. Bannwarth, S. Ehlert          DFT functionals, gCP, sTDA/sTD-DF
   Ed Valeev, F. Pavosevic, A. Kumar             : LibInt (2-el integral package), F12 methods
   Garnet Chan, S. Sharma, J. Yang, R. Olivares  : DMRG
   Ulf Ekstrom                                   : XCFun DFT Library
   Mihaly Kallay                                 : mrcc  (arbitrary order and MRCC methods)
   Jiri Pittner, Ondrej Demel                    : Mk-CCSD
   Frank Weinhold                                : gennbo (NPA and NBO analysis)
   Christopher J. Cramer and Donald G. Truhlar   : smd solvation model
   Lars Goerigk                                  : TD-DFT with DH, B97 family of functionals
   V. Asgeirsson, H. Jonsson                     : NEB implementation
   FAccTs GmbH                                   : IRC, NEB, NEB-TS, DLPNO-Multilevel, CI-OPT
                                                   MM, QMMM, 2- and 3-layer-ONIOM, Crystal-QMMM,
                                                   LR-CPCM, SF, NACMEs, symmetry and pop. for TD-DFT,
                                                   nearIR, NL-DFT gradient (VV10), updates on ESD,
                                                   ML-optimized integration grids
   S Lehtola, MJT Oliveira, MAL Marques          : LibXC Library
   Liviu Ungur et al                             : ANISO software


 Your calculation uses the libint2 library for the computation of 2-el integrals
 For citations please refer to: http://libint.valeyev.net

 Your ORCA version has been built with support for libXC version: 5.1.0
 For citations please refer to: https://tddft.org/programs/libxc/

 This ORCA versions uses:
   CBLAS   interface :  Fast vector & matrix operations
   LAPACKE interface :  Fast linear algebra routines
   SCALAPACK package :  Parallel linear algebra routines
   Shared memory     :  Shared parallel matrices
   BLAS/LAPACK       :  OpenBLAS 0.3.15  USE64BITINT DYNAMIC_ARCH NO_AFFINITY Prescott SINGLE_THREADED
        Core in use  :  Prescott
   Copyright (c) 2011-2014, The OpenBLAS Project


================================================================================

----- Orbital basis set information -----
Your calculation utilizes the basis: TZVP 

The basis set includes element-specific modifications.

Your calculation utilizes the basis: CP(PPP) 

----- AuxJ basis set information -----
Your calculation utilizes the auxiliary basis: def2/J
   F. Weigend, Phys. Chem. Chem. Phys. 8, 1057 (2006).

================================================================================
                                        WARNINGS
                       Please study these warnings very carefully!
================================================================================


WARNING: your system is open-shell and RHF/RKS was chosen
  ===> : WILL SWITCH to UHF/UKS


INFO   : the flag for use of the SHARK integral package has been found!

================================================================================
                                       INPUT FILE
================================================================================
NAME = input_24.inp
|  1> ! nofrozencore ReducedPop printbasis
|  2> ! B3LYP TZVP
|  3> 
|  4> %basis
|  5> newgto V "CP(PPP)" end
|  6> end
|  7> 
|  8> %pal
|  9> nprocs 8
| 10> end
| 11> 
| 12> % sym SymThresh 1e-2 end
| 13> * xyz -2 2 
| 14> V -0.4208019488171469 0.02105569158577696 1.0356773411929683
| 15> S 1.2059450737634607 1.6642753359583629 0.9093058415177593
| 16> S -1.8500166170606593 1.6009306533488772 -0.45052504230217016
| 17> S 1.6167891926186093 -1.590785167976699 1.0238212920436898
| 18> S -1.5284660070261433 -1.6497846047315832 -0.12347152438603633
| 19> O -1.016606956090887 0.05568808154842929 2.5165141716412163
| 20> C -3.025119363852885 0.4685780164495369 -1.0227777861605785
| 21> C -2.9538602012779447 -0.8883426146569985 -0.9695812689478834
| 22> C 2.8035739397927255 0.8950612748289026 1.337005851941851
| 23> C 2.8719391995891197 -0.46176704076104114 1.398800614182092
| 24> S -4.295044917183866 1.4890693100357866 -1.7584107252094394
| 25> S -4.32436691567086 -1.8246728086195254 -1.750664808056879
| 26> S 4.279734815862574 -1.4891149271923825 1.7961099560849731
| 27> S 4.342527130262154 1.8236339170704572 1.706392083040822
| 28> C -4.053122610640515 -1.6195312145190752 -3.5734326504516614
| 29> C 5.421548193803001 -1.0287536381931726 0.41872325644240077
| 30> C -4.158832491233395 0.9669444504290197 -3.525357234672389
| 31> C 5.418218212036581 1.5537390112149216 0.2215370473871061
| 32> C -4.748303077810027 -0.35266630466595916 -4.051009606793606
| 33> H -3.0906809028032973 1.0028182017094553 -3.755775148894195
| 34> H -4.634031451917123 1.7890259237965647 -4.070179766313612
| 35> H -4.694003927946796 -0.297362052607061 -5.154519595115568
| 36> H -5.809627955237886 -0.4154882495993264 -3.784908960645334
| 37> H -4.489188245887225 -2.505489393780594 -4.0455593299620425
| 38> H -2.980349630162358 -1.6137365642120587 -3.772793733055142
| 39> C 6.229325958674306 0.2797913142740295 0.4081402072538907
| 40> H 6.074043879204807 2.427994097146781 0.16150120626175918
| 41> H 4.790820618621107 1.5304592120080358 -0.6709527947334409
| 42> H 6.804665793246949 0.36598890892009617 1.3370201316817776
| 43> H 6.959716040178102 0.1850279200730269 -0.4172277712450234
| 44> H 4.816205937763091 -1.087926947386224 -0.48985215203818094
| 45> H 6.130784357362857 -1.8621465984373682 0.38806740374972215
| 46> * 
| 47> 
| 48> % eprnmr
| 49> gtensor true
| 50> Nuclei = all H {aiso,adip,aorb,fgrad,rho}
| 51> Nuclei = all V {aiso,adip,aorb,fgrad,rho}
| 52> end
| 53> 
| 54>                          ****END OF INPUT****
================================================================================

------------------------------------------------------------------------------
                            SYMMETRY HANDLING SETUP
------------------------------------------------------------------------------

------------------
SYMMETRY DETECTION
------------------
The point group will now be determined using a tolerance of 1.0000e-02.
Splitting atom subsets according to nuclear charge, mass and basis set.
Splitting atom subsets according to distance from the molecule's center.
Identifying relative distance patterns of the atoms.
Splitting atom subsets according to atoms' relative distance patterns.
Bring atoms of each subset into input order.
The molecule is neither linear nor planar.
There is at least one atom subset not centered around the molecule's center.
The molecule does not have a center of inversion.
Analyzing the first atom subset for its symmetry.
The atom subset represents a 4-gon with alternating side lengths
that is not centered around the molecule's center.
Testing point group C2v.
Test failed.
Testing point group C2.
Test failed.
Testing point group Cs.
Test failed.
Testing point group Cs.
Test failed.
No testing is needed for point group C1.
This point group has been found:    C1
Largest non-degenerate subgroup:    C1


Mass-centered symmetry-perfected Cartesians (point group C1):

Atom          Symmetry-perfected Cartesians (x, y, z; au)
  0      -0.796185025350    0.039837192787    1.959160771449
  1       2.277921336499    3.145072298530    1.720353245930
  2      -3.497009334913    3.025368196358   -0.849354712938
  3       3.054304204868   -3.006100603251    1.936756085526
  4      -2.889366743753   -3.117593380773   -0.231313132941
  5      -1.922093318316    0.105282925179    4.757536830020
  6      -5.717631705569    0.885531825595   -1.930755678215
  7      -5.582971403770   -1.678676552664   -1.830228829405
  8       5.297002356942    1.691468384634    2.528589133106
  9       5.426193975031   -0.872565542581    2.645364310251
 10      -8.117443211833    2.813980892524   -3.320900468109
 11      -8.172853758673   -3.448084190175   -3.306262806035
 12       8.086542142323   -2.813971692199    3.396170156896
 13       8.205202419853    3.446216373922    3.226627947525
 14      -7.660276306780   -3.060422758649   -6.750794833880
 15      10.244256722678   -1.944014933331    0.793286514066
 16      -7.860039030750    1.827307900155   -6.659945464282
 17      10.237963969109    2.936188916915    0.420658581565
 18      -8.973977003381   -0.666395030352   -7.653284489238
 19      -5.841525059104    1.895099465471   -7.095372218511
 20      -8.758034925566    3.380816744590   -7.689510840674
 21      -8.871366480835   -0.561885139919   -9.738616153213
 22     -10.979590360838   -0.785111301476   -7.150427143958
 23      -8.484320933810   -4.734641083561   -7.642984958672
 24      -5.633029169805   -3.049472456527   -7.127532681762
 25      11.770735475356    0.528776660757    0.773287449438
 26      11.477294871653    4.588291600514    0.307207283619
 27       9.052354340472    2.892196471961   -1.265902797349
 28      12.857970196634    0.691666508041    2.528616117904
 29      13.150972700330    0.349699798196   -0.786431989633
 30       9.100325641473   -2.055836282144   -0.923672179978
 31      11.584518836079   -3.518899390131    0.735355348075


------------------
SYMMETRY REDUCTION
------------------
ORCA supports only abelian point groups.
It is now checked, if the determined point group is supported:
Point Group ( C1    ) is          ... supported

The point group is C1 - hence turning off symmetry
If this is a round-off problem, please increase the symmetry
        detection tolerance (%method SymThresh)

Storing the symmetry object:
Symmetry file                     ... input_24.sym.tmp
Writing symmetry information      ... done

                       ****************************
                       * Single Point Calculation *
                       ****************************

---------------------------------
CARTESIAN COORDINATES (ANGSTROEM)
---------------------------------
  V     -0.421323    0.021081    1.036743
  S      1.205424    1.664301    0.910372
  S     -1.850538    1.600956   -0.449459
  S      1.616268   -1.590760    1.024887
  S     -1.528987   -1.649759   -0.122406
  O     -1.017128    0.055713    2.517580
  C     -3.025640    0.468603   -1.021712
  C     -2.954381   -0.888317   -0.968515
  C      2.803053    0.895087    1.338072
  C      2.871418   -0.461742    1.399867
  S     -4.295566    1.489095   -1.757345
  S     -4.324888   -1.824648   -1.749599
  S      4.279214   -1.489090    1.797176
  S      4.342006    1.823659    1.707458
  C     -4.053644   -1.619506   -3.572367
  C      5.421027   -1.028728    0.419789
  C     -4.159354    0.966970   -3.524291
  C      5.417697    1.553764    0.222603
  C     -4.748824   -0.352641   -4.049944
  H     -3.091202    1.002843   -3.754709
  H     -4.634552    1.789051   -4.069114
  H     -4.694525   -0.297337   -5.153454
  H     -5.810149   -0.415463   -3.783843
  H     -4.489709   -2.505464   -4.044493
  H     -2.980871   -1.613711   -3.771728
  C      6.228805    0.279817    0.409206
  H      6.073523    2.428019    0.162567
  H      4.790300    1.530484   -0.669887
  H      6.804145    0.366014    1.338086
  H      6.959195    0.185053   -0.416162
  H      4.815685   -1.087902   -0.488786
  H      6.130263   -1.862121    0.389133

----------------------------
CARTESIAN COORDINATES (A.U.)
----------------------------
  NO LB      ZA    FRAG     MASS         X           Y           Z
   0 V    23.0000    0    50.940   -0.796185    0.039837    1.959161
   1 S    16.0000    0    32.060    2.277921    3.145072    1.720353
   2 S    16.0000    0    32.060   -3.497009    3.025368   -0.849355
   3 S    16.0000    0    32.060    3.054304   -3.006101    1.936756
   4 S    16.0000    0    32.060   -2.889367   -3.117593   -0.231313
   5 O     8.0000    0    15.999   -1.922093    0.105283    4.757537
   6 C     6.0000    0    12.011   -5.717632    0.885532   -1.930756
   7 C     6.0000    0    12.011   -5.582971   -1.678677   -1.830229
   8 C     6.0000    0    12.011    5.297002    1.691468    2.528589
   9 C     6.0000    0    12.011    5.426194   -0.872566    2.645364
  10 S    16.0000    0    32.060   -8.117443    2.813981   -3.320900
  11 S    16.0000    0    32.060   -8.172854   -3.448084   -3.306263
  12 S    16.0000    0    32.060    8.086542   -2.813972    3.396170
  13 S    16.0000    0    32.060    8.205202    3.446216    3.226628
  14 C     6.0000    0    12.011   -7.660276   -3.060423   -6.750795
  15 C     6.0000    0    12.011   10.244257   -1.944015    0.793287
  16 C     6.0000    0    12.011   -7.860039    1.827308   -6.659945
  17 C     6.0000    0    12.011   10.237964    2.936189    0.420659
  18 C     6.0000    0    12.011   -8.973977   -0.666395   -7.653284
  19 H     1.0000    0     1.008   -5.841525    1.895099   -7.095372
  20 H     1.0000    0     1.008   -8.758035    3.380817   -7.689511
  21 H     1.0000    0     1.008   -8.871366   -0.561885   -9.738616
  22 H     1.0000    0     1.008  -10.979590   -0.785111   -7.150427
  23 H     1.0000    0     1.008   -8.484321   -4.734641   -7.642985
  24 H     1.0000    0     1.008   -5.633029   -3.049472   -7.127533
  25 C     6.0000    0    12.011   11.770735    0.528777    0.773287
  26 H     1.0000    0     1.008   11.477295    4.588292    0.307207
  27 H     1.0000    0     1.008    9.052354    2.892196   -1.265903
  28 H     1.0000    0     1.008   12.857970    0.691667    2.528616
  29 H     1.0000    0     1.008   13.150973    0.349700   -0.786432
  30 H     1.0000    0     1.008    9.100326   -2.055836   -0.923672
  31 H     1.0000    0     1.008   11.584519   -3.518899    0.735355

--------------------------------
INTERNAL COORDINATES (ANGSTROEM)
--------------------------------
 V      0   0   0     0.000000000000     0.00000000     0.00000000
 S      1   0   0     2.315695668920     0.00000000     0.00000000
 S      1   2   0     2.597586762254    85.62443093     0.00000000
 S      1   2   3     2.598066431428    83.62969704   145.30141692
 S      1   2   3     2.315653915035   145.15648000    72.28370238
 O      1   2   3     1.596577817564   107.30000086   252.29797643
 C      3   1   2     1.729324192471    99.49452399   162.23266667
 C      7   3   1     1.359831363375   127.21728973   344.78078450
 C      2   1   3     1.824016327867   107.65310529   199.48725834
 C      9   2   1     1.359954219588   118.38739875    12.22635394
 S      7   3   1     1.787531597567   104.18863332   167.38692110
 S      8   7   3     1.834419358105   116.96994440   183.40930758
 S     10   9   2     1.787508570642   128.54341881   180.35536819
 S      9   2   1     1.834957836600   124.63790727   192.67662786
 C     12   8   7     1.854221980754   104.64382785    72.74041795
 C     13  10   9     1.847393955496   100.24346041   298.07592247
 C     11   7   3     1.847503223625   100.36227933   115.28557770
 C     14   9   2     1.853307594686   104.58456665   252.54789529
 C     15  12   8     1.521940317811   109.49627032   272.16040456
 H     17  11   7     1.093310183384   105.32662941   312.11055892
 H     17  11   7     1.094743619334   103.39985848   199.82265307
 H     19  15  12     1.106228390658   109.40343681   187.02064485
 H     19  15  12     1.095977484300   108.56788514   303.48046072
 H     15  12   8     1.094522149227   106.03371001   152.47888093
 H     15  12   8     1.091155482446   108.90590063    35.91046448
 C     18  14   9     1.521729033195   109.45349586   272.24779057
 H     18  14   9     1.094547195517   105.98571963   152.64633926
 H     18  14   9     1.091195586301   108.94642672    36.11850180
 H     26  18  14     1.096021835811   108.53504351   303.36322654
 H     26  18  14     1.106201641642   109.39973113   186.93212684
 H     16  13  10     1.093366361456   105.30115340   312.11736042
 H     16  13  10     1.094760039091   103.39065719   199.86547999

---------------------------
INTERNAL COORDINATES (A.U.)
---------------------------
 V      0   0   0     0.000000000000     0.00000000     0.00000000
 S      1   0   0     4.376030623767     0.00000000     0.00000000
 S      1   2   0     4.908727589758    85.62443093     0.00000000
 S      1   2   3     4.909634033133    83.62969704   145.30141692
 S      1   2   3     4.375951720360   145.15648000    72.28370238
 O      1   2   3     3.017094826691   107.30000086   252.29797643
 C      3   1   2     3.267949120534    99.49452399   162.23266667
 C      7   3   1     2.569708865095   127.21728973   344.78078450
 C      2   1   3     3.446891323470   107.65310529   199.48725834
 C      9   2   1     2.569941029691   118.38739875    12.22635394
 S      7   3   1     3.377945175133   104.18863332   167.38692110
 S      8   7   3     3.466550201581   116.96994440   183.40930758
 S     10   9   2     3.377901660550   128.54341881   180.35536819
 S      9   2   1     3.467567778467   124.63790727   192.67662786
 C     12   8   7     3.503971735121   104.64382785    72.74041795
 C     13  10   9     3.491068637350   100.24346041   298.07592247
 C     11   7   3     3.491275124189   100.36227933   115.28557770
 C     14   9   2     3.502243795873   104.58456665   252.54789529
 C     15  12   8     2.876050392837   109.49627032   272.16040456
 H     17  11   7     2.066056826023   105.32662941   312.11055892
 H     17  11   7     2.068765627399   103.39985848   199.82265307
 H     19  15  12     2.090468699912   109.40343681   187.02064485
 H     19  15  12     2.071097294271   108.56788514   303.48046072
 H     15  12   8     2.068347109550   106.03371001   152.47888093
 H     15  12   8     2.061985031351   108.90590063    35.91046448
 C     18  14   9     2.875651122776   109.45349586   272.24779057
 H     18  14   9     2.068394440179   105.98571963   152.64633926
 H     18  14   9     2.062060816653   108.94642672    36.11850180
 H     26  18  14     2.071181106480   108.53504351   303.36322654
 H     26  18  14     2.090418151597   109.39973113   186.93212684
 H     16  13  10     2.066162987194   105.30115340   312.11736042
 H     16  13  10     2.068796656242   103.39065719   199.86547999

---------------------
BASIS SET INFORMATION
---------------------
There are 5 groups of distinct atoms

 Group   1 Type V   : 17s11p5d1f contracted to 17s7p3d1f pattern {11111111111111111/3311111/311/1}
 Group   2 Type S   : 14s9p1d contracted to 5s4p1d pattern {73211/6111/1}
 Group   3 Type O   : 11s6p1d contracted to 5s3p1d pattern {62111/411/1}
 Group   4 Type C   : 11s6p1d contracted to 5s3p1d pattern {62111/411/1}
 Group   5 Type H   : 5s1p contracted to 3s1p pattern {311/1}

Atom   0V    basis set group =>   1
Atom   1S    basis set group =>   2
Atom   2S    basis set group =>   2
Atom   3S    basis set group =>   2
Atom   4S    basis set group =>   2
Atom   5O    basis set group =>   3
Atom   6C    basis set group =>   4
Atom   7C    basis set group =>   4
Atom   8C    basis set group =>   4
Atom   9C    basis set group =>   4
Atom  10S    basis set group =>   2
Atom  11S    basis set group =>   2
Atom  12S    basis set group =>   2
Atom  13S    basis set group =>   2
Atom  14C    basis set group =>   4
Atom  15C    basis set group =>   4
Atom  16C    basis set group =>   4
Atom  17C    basis set group =>   4
Atom  18C    basis set group =>   4
Atom  19H    basis set group =>   5
Atom  20H    basis set group =>   5
Atom  21H    basis set group =>   5
Atom  22H    basis set group =>   5
Atom  23H    basis set group =>   5
Atom  24H    basis set group =>   5
Atom  25C    basis set group =>   4
Atom  26H    basis set group =>   5
Atom  27H    basis set group =>   5
Atom  28H    basis set group =>   5
Atom  29H    basis set group =>   5
Atom  30H    basis set group =>   5
Atom  31H    basis set group =>   5

-------------------------
BASIS SET IN INPUT FORMAT
-------------------------

 # Basis set for element : H 
 NewGTO H 
 S 3 
   1      34.0613410000      0.0254393168
   2       5.1235746000      0.1900859340
   3       1.1646626000      0.8524411390
 S 1 
   1       0.3272304100      1.0000000000
 S 1 
   1       0.1030724100      1.0000000000
 P 1 
   1       0.8000000000      1.0000000000
  end;

 # Basis set for element : C 
 NewGTO C 
 S 6 
   1   13575.3496820000      0.0006064601
   2    2035.2333680000      0.0046978985
   3     463.2256235900      0.0243324735
   4     131.2001959800      0.0973999560
   5      42.8530158900      0.3019558443
   6      15.5841857700      0.6623361013
 S 2 
   1       6.2067138500      0.6559530795
   2       2.5764896500      0.3758563390
 S 1 
   1       0.5769633900      1.0000000000
 S 1 
   1       0.2297283100      1.0000000000
 S 1 
   1       0.0951644400      1.0000000000
 P 4 
   1      34.6972322400      0.0113272290
   2       7.9582622800      0.0761696612
   3       2.3780826900      0.3019225154
   4       0.8143320800      0.7278502776
 P 1 
   1       0.2888754700      1.0000000000
 P 1 
   1       0.1005682400      1.0000000000
 D 1 
   1       0.8000000000      1.0000000000
  end;

 # Basis set for element : O 
 NewGTO O 
 S 6 
   1   27032.3826310000      0.0005722654
   2    4052.3871392000      0.0044353333
   3     922.3272271000      0.0230201034
   4     261.2407098900      0.0928224938
   5      85.3546413500      0.2937849971
   6      31.0350352400      0.6740160462
 S 2 
   1      12.2608607300      0.6383993750
   2       4.9987076000      0.3953458663
 S 1 
   1       1.1703108200      1.0000000000
 S 1 
   1       0.4647474100      1.0000000000
 S 1 
   1       0.1850453600      1.0000000000
 P 4 
   1      63.2749548000      0.0120183316
   2      14.6270493800      0.0830054304
   3       4.4501223500      0.3199174388
   4       1.5275799600      0.7071554258
 P 1 
   1       0.5293511800      1.0000000000
 P 1 
   1       0.1747842100      1.0000000000
 D 1 
   1       1.2000000000      1.0000000000
  end;

 # Basis set for element : S 
 NewGTO S 
 S 7 
   1   60700.9281040000      0.0005238013
   2    9102.6106854000      0.0040506304
   3    2071.4166009000      0.0208270003
   4     586.0247682100      0.0814968475
   5     190.5539502100      0.2374911358
   6      67.6303842600      0.4472617145
   7      25.1273069100      0.3489191913
 S 3 
   1     112.5746301000      0.1004556993
   2      34.7955542200      0.4339117282
   3       6.5115556200     -1.2084330582
 S 2 
   1       3.2399032300      0.6749812922
   2       1.5477160900      0.3470879597
 S 1 
   1       0.4054103000      1.0000000000
 S 1 
   1       0.1455065100      1.0000000000
 P 6 
   1     564.3671602700      0.0025564845
   2     133.4262437900      0.0202874255
   3      42.4682711900      0.0927670112
   4      15.6165275800      0.2650208365
   5       6.1093988500      0.4486298663
   6       2.4404160200      0.3596369916
 P 1 
   1       0.8388220100      1.0000000000
 P 1 
   1       0.3128874700      1.0000000000
 P 1 
   1       0.1077010900      1.0000000000
 D 1 
   1       0.5500000000      1.0000000000
  end;

 # Basis set for element : V 
 NewGTO V 
 S 1 
   1  4239814.9912500000      1.0000000000
 S 1 
   1  1695925.9965000001      1.0000000000
 S 1 
   1  678370.3986000001      1.0000000000
 S 1 
   1  271348.1594400000      1.0000000000
 S 1 
   1   40672.0050780000      1.0000000000
 S 1 
   1    9257.0761385000      1.0000000000
 S 1 
   1    2622.7328773000      1.0000000000
 S 1 
   1     858.5948018500      1.0000000000
 S 1 
   1     314.1941865000      1.0000000000
 S 1 
   1     124.4786212700      1.0000000000
 S 1 
   1      50.4693993090      1.0000000000
 S 1 
   1      12.5138469110      1.0000000000
 S 1 
   1       5.3447758082      1.0000000000
 S 1 
   1       1.5755631295      1.0000000000
 S 1 
   1       0.6306903307      1.0000000000
 S 1 
   1       0.0879544416      1.0000000000
 S 1 
   1       0.0342969197      1.0000000000
 P 3 
   1    1450.0319327000     -0.0222847647
   2     343.7504988400     -0.1817959329
   3     110.8252170800     -0.8607412073
 P 3 
   1      41.8224645460     -0.2522537814
   2      17.0880737100     -0.4620379520
   3       7.2613218939     -0.3990010670
 P 1 
   1       2.9458145262      1.0000000000
 P 1 
   1       1.1650209680      1.0000000000
 P 1 
   1       0.4339937839      1.0000000000
 D 3 
   1      27.3603358640      0.0575501019
   2       7.4542765527      0.3023798347
   3       2.4632270217      0.7724212088
 D 1 
   1       0.8249954244      1.0000000000
 D 1 
   1       0.2526297057      1.0000000000
 P 1 
   1       0.1112480000      1.0000000000
 P 1 
   1       0.0363780000      1.0000000000
 F 1 
   1       1.8000000000      1.0000000000
  end;

---------------------------------
AUXILIARY/J BASIS SET INFORMATION
---------------------------------
There are 5 groups of distinct atoms

 Group   1 Type V   : 19s5p5d3f3g contracted to 8s5p5d2f3g pattern {121111111/11111/11111/21/111}
 Group   2 Type S   : 14s5p5d2f1g contracted to 8s4p3d1f1g pattern {71111111/2111/311/2/1}
 Group   3 Type O   : 12s5p4d2f1g contracted to 6s4p3d1f1g pattern {711111/2111/211/2/1}
 Group   4 Type C   : 12s5p4d2f1g contracted to 6s4p3d1f1g pattern {711111/2111/211/2/1}
 Group   5 Type H   : 5s2p1d contracted to 3s1p1d pattern {311/2/1}

Atom   0V    basis set group =>   1
Atom   1S    basis set group =>   2
Atom   2S    basis set group =>   2
Atom   3S    basis set group =>   2
Atom   4S    basis set group =>   2
Atom   5O    basis set group =>   3
Atom   6C    basis set group =>   4
Atom   7C    basis set group =>   4
Atom   8C    basis set group =>   4
Atom   9C    basis set group =>   4
Atom  10S    basis set group =>   2
Atom  11S    basis set group =>   2
Atom  12S    basis set group =>   2
Atom  13S    basis set group =>   2
Atom  14C    basis set group =>   4
Atom  15C    basis set group =>   4
Atom  16C    basis set group =>   4
Atom  17C    basis set group =>   4
Atom  18C    basis set group =>   4
Atom  19H    basis set group =>   5
Atom  20H    basis set group =>   5
Atom  21H    basis set group =>   5
Atom  22H    basis set group =>   5
Atom  23H    basis set group =>   5
Atom  24H    basis set group =>   5
Atom  25C    basis set group =>   4
Atom  26H    basis set group =>   5
Atom  27H    basis set group =>   5
Atom  28H    basis set group =>   5
Atom  29H    basis set group =>   5
Atom  30H    basis set group =>   5
Atom  31H    basis set group =>   5

-------------------------------------
AUXILIARY/J BASIS SET IN INPUT FORMAT
-------------------------------------

 # Auxiliary/J basis set for element : H 
 NewAuxJGTO H 
 S 3 
   1      15.6752927000      0.1007184237
   2       3.6063578000      0.3404257499
   3       1.2080016000      0.6491996172
 S 1 
   1       0.4726794000      1.0000000000
 S 1 
   1       0.2018100000      1.0000000000
 P 2 
   1       2.0281365000      0.5596620919
   2       0.5358730000      0.5596620919
 D 1 
   1       2.2165124000      1.0000000000
  end;

 # Auxiliary/J basis set for element : C 
 NewAuxJGTO C 
 S 7 
   1    1861.0916331000      0.0134602335
   2     642.9939764000      0.0299160374
   3     235.1105725000      0.1008649584
   4      90.7028894000      0.2370970548
   5      36.7794552000      0.3924037254
   6      15.6046273000      0.3195862154
   7       6.8907294000      0.0530104441
 S 1 
   1       3.1478850000     -1.0000000000
 S 1 
   1       1.4777287000      1.0000000000
 S 1 
   1       0.7076466000      1.0000000000
 S 1 
   1       0.3430122000      1.0000000000
 S 1 
   1       0.1669453000      1.0000000000
 P 2 
   1      13.5472892000     -0.6769313712
   2       5.4669419000     -0.3779500978
 P 1 
   1       2.1751721000      1.0000000000
 P 1 
   1       0.8582194000      1.0000000000
 P 1 
   1       0.3376720000      1.0000000000
 D 2 
   1       5.9287253000     -0.3533329857
   2       1.9809209000     -0.7456525731
 D 1 
   1       0.8055417000     -1.0000000000
 D 1 
   1       0.3531244000     -1.0000000000
 F 2 
   1       1.6755626000      0.6311076882
   2       0.5997536000      0.4968166032
 G 1 
   1       1.0024600000     -1.0000000000
  end;

 # Auxiliary/J basis set for element : O 
 NewAuxJGTO O 
 S 7 
   1    2876.8216605000      0.0168151159
   2    1004.7443032000      0.0340137548
   3     369.7579954000      0.1194951309
   4     142.9442404000      0.2664627624
   5      57.8366425000      0.4202764046
   6      24.3864983000      0.2765077335
   7      10.6622662000      0.0057008815
 S 1 
   1       4.8070437000     -1.0000000000
 S 1 
   1       2.2210770000      1.0000000000
 S 1 
   1       1.0447795000      1.0000000000
 S 1 
   1       0.4968425000      1.0000000000
 S 1 
   1       0.2371384000      1.0000000000
 P 2 
   1      64.2613382000     -0.2731534179
   2      16.3006076000     -0.8168011598
 P 1 
   1       4.3550542000      1.0000000000
 P 1 
   1       1.2019554000      1.0000000000
 P 1 
   1       0.3354196000      1.0000000000
 D 2 
   1       9.2146611000     -0.4661230638
   2       2.8435251000     -0.6600908911
 D 1 
   1       0.9955759000     -1.0000000000
 D 1 
   1       0.3649441000     -1.0000000000
 F 2 
   1       2.6420115000      0.5931563945
   2       0.7345613000      0.5931563945
 G 1 
   1       1.3931000000     -1.0000000000
  end;

 # Auxiliary/J basis set for element : S 
 NewAuxJGTO S 
 S 7 
   1    7399.0303145000      0.0295137551
   2    2710.1675859000      0.0559686311
   3    1034.3279062000      0.1764696370
   4     410.4645411000      0.3577969368
   5     168.9762502000      0.4299293578
   6      71.9687889000      0.1259148089
   7      31.6172683000     -0.0646025788
 S 1 
   1      14.2796836000      1.0000000000
 S 1 
   1       6.6060948000      1.0000000000
 S 1 
   1       3.1181477000      1.0000000000
 S 1 
   1       1.4954039000     -1.0000000000
 S 1 
   1       0.7254779000      1.0000000000
 S 1 
   1       0.3544216000      1.0000000000
 S 1 
   1       0.1735525000      1.0000000000
 P 2 
   1      12.6998799000      1.4059102813
   2       4.4295784000     -1.2124994202
 P 1 
   1       1.5232889000      1.0000000000
 P 1 
   1       0.5194667000     -1.0000000000
 P 1 
   1       0.1766547000     -1.0000000000
 D 3 
   1      16.8546461000      1.0295742104
   2       5.0810461000     -0.7461553923
   3       1.5102323000      0.8357028005
 D 1 
   1       0.4451331000      1.0000000000
 D 1 
   1       0.1308362000      1.0000000000
 F 2 
   1       1.0809860000      0.5572698934
   2       0.4161474000      0.5572698934
 G 1 
   1       0.6707100000     -1.0000000000
  end;

 # Auxiliary/J basis set for element : V 
 NewAuxJGTO V 
 S 12 
   1   11942.0842430000      0.0459866720
   2    2430.7110193000      0.1744615821
   3     841.0764301000      0.2900402792
   4     494.7508273000      0.1411212903
   5     291.0298903000      0.2660697186
   6     171.1940483000      0.0446365706
   7      59.2366916000     -0.0408204801
   8      34.8451117000      0.1394665381
   9      20.4971240000      0.2164746715
  10      12.0571314000      0.0864266611
  11       7.0924300000     -0.0568501658
  12       4.1720176000     -0.0126212852
 S 1 
   1       2.4541279000      1.0000000000
 S 1 
   1       1.4436046000      1.0000000000
 S 1 
   1       0.8491792000      1.0000000000
 S 1 
   1       0.2938336000      1.0000000000
 S 1 
   1       0.1728433000      1.0000000000
 S 1 
   1       0.1016725000      1.0000000000
 S 1 
   1       0.0598074000      1.0000000000
 P 1 
   1      16.7130979000     -1.0000000000
 P 1 
   1       4.7454037000     -1.0000000000
 P 1 
   1       1.3889998000      1.0000000000
 P 1 
   1       0.4142440000     -1.0000000000
 P 1 
   1       0.1243234000      1.0000000000
 D 1 
   1       7.7143225000      1.0000000000
 D 1 
   1       3.1170731000      1.0000000000
 D 1 
   1       1.2767950000     -1.0000000000
 D 1 
   1       0.5273386000      1.0000000000
 D 1 
   1       0.2184050000      1.0000000000
 F 2 
   1       3.1309344000     -1.0825667766
   2       1.0419780000      0.1809223232
 F 1 
   1       0.3559044000      1.0000000000
 G 1 
   1       8.7130110000      1.0000000000
 G 1 
   1       2.7493872000      1.0000000000
 G 1 
   1       0.8775089000      1.0000000000
  end;



           ************************************************************
           *        Program running with 8 parallel MPI-processes     *
           *              working on a common directory               *
           ************************************************************
------------------------------------------------------------------------------
                           ORCA GTO INTEGRAL CALCULATION
                           -- RI-GTO INTEGRALS CHOSEN --
------------------------------------------------------------------------------
------------------------------------------------------------------------------
                   ___                                                        
                  /   \      - P O W E R E D   B Y -                         
                 /     \                                                     
                 |  |  |   _    _      __       _____    __    __             
                 |  |  |  | |  | |    /  \     |  _  \  |  |  /  |          
                  \  \/   | |  | |   /    \    | | | |  |  | /  /          
                 / \  \   | |__| |  /  /\  \   | |_| |  |  |/  /          
                |  |  |   |  __  | /  /__\  \  |    /   |      \           
                |  |  |   | |  | | |   __   |  |    \   |  |\   \          
                \     /   | |  | | |  |  |  |  | |\  \  |  | \   \       
                 \___/    |_|  |_| |__|  |__|  |_| \__\ |__|  \__/        
                                                                              
                      - O R C A' S   B I G   F R I E N D -                    
                                      &                                       
                       - I N T E G R A L  F E E D E R -                       
                                                                              
 v1 FN, 2020, v2 2021                                                         
------------------------------------------------------------------------------


Reading SHARK input file input_24.SHARKINP.tmp ... ok
----------------------
SHARK INTEGRAL PACKAGE
----------------------

Number of atoms                             ...     32
Number of basis functions                   ...    517
Number of shells                            ...    255
Maximum angular momentum                    ...      3
Integral batch strategy                     ... SHARK/LIBINT Hybrid
RI-J (if used) integral strategy            ... SPLIT-RIJ (Revised 2003 algorithm where possible)
Printlevel                                  ...      1
Contraction scheme used                     ... SEGMENTED contraction
Coulomb Range Separation                    ... NOT USED
Exchange Range Separation                   ... NOT USED
Finite Nucleus Model                        ... NOT USED
Auxiliary Coulomb fitting basis             ... AVAILABLE
   # of basis functions in Aux-J            ...   1168
   # of shells in Aux-J                     ...    384
   Maximum angular momentum in Aux-J        ...      4
Auxiliary J/K fitting basis                 ... NOT available
Auxiliary Correlation fitting basis         ... NOT available
Auxiliary 'external' fitting basis          ... NOT available
Integral threshold                          ...     1.000000e-10
Primitive cut-off                           ...     1.000000e-11
Primitive pair pre-selection threshold      ...     1.000000e-11

Calculating pre-screening integrals         ... done (  0.1 sec) Dimension = 255
Organizing shell pair data                  ... done (  0.1 sec)
Shell pair information
Total number of shell pairs                 ...     32640
Shell pairs after pre-screening             ...     17845
Total number of primitive shell pairs       ...    123863
Primitive shell pairs kept                  ...     41643
          la=0 lb=0:   5399 shell pairs
          la=1 lb=0:   7066 shell pairs
          la=1 lb=1:   2296 shell pairs
          la=2 lb=0:   1679 shell pairs
          la=2 lb=1:   1119 shell pairs
          la=2 lb=2:    152 shell pairs
          la=3 lb=0:     69 shell pairs
          la=3 lb=1:     52 shell pairs
          la=3 lb=2:     12 shell pairs
          la=3 lb=3:      1 shell pairs

Calculating one electron integrals          ... done (  0.0 sec)
Calculating RI/J V-Matrix + Cholesky decomp.... done (  0.1 sec)
Calculating Nuclear repulsion               ... done (  0.0 sec) ENN=   3211.318356939881 Eh

SHARK setup successfully completed in   0.5 seconds

Maximum memory used throughout the entire GTOINT-calculation: 31.6 MB


           ************************************************************
           *        Program running with 8 parallel MPI-processes     *
           *              working on a common directory               *
           ************************************************************
-------------------------------------------------------------------------------
                                 ORCA SCF
-------------------------------------------------------------------------------

------------
SCF SETTINGS
------------
Hamiltonian:
 Density Functional     Method          .... DFT(GTOs)
 Exchange Functional    Exchange        .... B88
   X-Alpha parameter    XAlpha          ....  0.666667
   Becke's b parameter  XBeta           ....  0.004200
 Correlation Functional Correlation     .... LYP
 LDA part of GGA corr.  LDAOpt          .... VWN-5
 Gradients option       PostSCFGGA      .... off
 Hybrid DFT is turned on
   Fraction HF Exchange ScalHFX         ....  0.200000
   Scaling of DF-GGA-X  ScalDFX         ....  0.720000
   Scaling of DF-GGA-C  ScalDFC         ....  0.810000
   Scaling of DF-LDA-C  ScalLDAC        ....  1.000000
   Perturbative correction              ....  0.000000
   Density functional embedding theory  .... OFF
   NL short-range parameter             ....  4.800000
 RI-approximation to the Coulomb term is turned on
   Number of AuxJ basis functions       .... 1168
   RIJ-COSX (HFX calculated with COS-X)).... on


General Settings:
 Integral files         IntName         .... input_24
 Hartree-Fock type      HFTyp           .... UHF
 Total Charge           Charge          ....   -2
 Multiplicity           Mult            ....    2
 Number of Electrons    NEL             ....  233
 Basis Dimension        Dim             ....  517
 Nuclear Repulsion      ENuc            ....   3211.3183569399 Eh

Convergence Acceleration:
 DIIS                   CNVDIIS         .... on
   Start iteration      DIISMaxIt       ....    12
   Startup error        DIISStart       ....  0.200000
   # of expansion vecs  DIISMaxEq       ....     5
   Bias factor          DIISBfac        ....   1.050
   Max. coefficient     DIISMaxC        ....  10.000
 Trust-Rad. Augm. Hess. CNVTRAH         .... auto
   Auto Start mean grad. ratio tolernc. ....  1.125000
   Auto Start start iteration           ....    20
   Auto Start num. interpolation iter.  ....    10
   Max. Number of Micro iterations      ....    16
   Max. Number of Macro iterations      .... Maxiter - #DIIS iter
   Number of Davidson start vectors     ....     2
   Converg. threshold I  (grad. norm)   ....   5.000e-05
   Converg. threshold II (energy diff.) ....   1.000e-06
   Grad. Scal. Fac. for Micro threshold ....   0.100
   Minimum threshold for Micro iter.    ....   0.010
   NR start threshold (gradient norm)   ....   0.001
   Initial trust radius                 ....   0.400
   Minimum AH scaling param. (alpha)    ....   1.000
   Maximum AH scaling param. (alpha)    .... 1000.000
   Orbital update algorithm             .... Taylor
   White noise on init. David. guess    .... on
   Maximum white noise                  ....   0.010
   Quad. conv. algorithm                .... NR
 SOSCF                  CNVSOSCF        .... off
 Level Shifting         CNVShift        .... on
   Level shift para.    LevelShift      ....    0.2500
   Turn off err/grad.   ShiftErr        ....    0.0010
 Zerner damping         CNVZerner       .... off
 Static damping         CNVDamp         .... on
   Fraction old density DampFac         ....    0.7000
   Max. Damping (<1)    DampMax         ....    0.9800
   Min. Damping (>=0)   DampMin         ....    0.0000
   Turn off err/grad.   DampErr         ....    0.1000
 Fernandez-Rico         CNVRico         .... off

SCF Procedure:
 Maximum # iterations   MaxIter         ....   125
 SCF integral mode      SCFMode         .... Direct
   Integral package                     .... SHARK and LIBINT hybrid scheme
 Reset frequency        DirectResetFreq ....    20
 Integral Threshold     Thresh          ....  1.000e-10 Eh
 Primitive CutOff       TCut            ....  1.000e-11 Eh

Convergence Tolerance:
 Convergence Check Mode ConvCheckMode   .... Total+1el-Energy
 Convergence forced     ConvForced      .... 0
 Energy Change          TolE            ....  1.000e-06 Eh
 1-El. energy change                    ....  1.000e-03 Eh
 DIIS Error             TolErr          ....  1.000e-06


Diagonalization of the overlap matrix:
Smallest eigenvalue                        ... 1.828e-04
Time for diagonalization                   ...    0.109 sec
Threshold for overlap eigenvalues          ... 1.000e-08
Number of eigenvalues below threshold      ... 0
Time for construction of square roots      ...    0.117 sec
Total time needed                          ...    0.230 sec

Time for model grid setup =    0.266 sec

------------------------------
INITIAL GUESS: MODEL POTENTIAL
------------------------------
Loading Hartree-Fock densities                     ... done
Calculating cut-offs                               ... done
Initializing the effective Hamiltonian             ... done
Setting up the integral package (SHARK)            ... done
Starting the Coulomb interaction                   ... done (   0.2 sec)
Reading the grid                                   ... done
Mapping shells                                     ... done
Starting the XC term evaluation                    ... done (   0.1 sec)
  promolecular density results
     # of electrons  =    230.992031676
     EX              =   -307.547151178
     EC              =     -9.027272379
     EX+EC           =   -316.574423558
Transforming the Hamiltonian                       ... done (   0.1 sec)
Diagonalizing the Hamiltonian                      ... done (   0.1 sec)
Back transforming the eigenvectors                 ... done (   0.0 sec)
Now organizing SCF variables                       ... done
                      ------------------
                      INITIAL GUESS DONE (   0.8 sec)
                      ------------------
-------------------
DFT GRID GENERATION
-------------------

General Integration Accuracy     IntAcc      ... 4.388
Radial Grid Type                 RadialGrid  ... OptM3 with GC (2021)
Angular Grid (max. ang.)         AngularGrid ... 4 (Lebedev-302)
Angular grid pruning method      GridPruning ... 4 (adaptive)
Weight generation scheme         WeightScheme... Becke
Basis function cutoff            BFCut       ... 1.0000e-10
Integration weight cutoff        WCut        ... 1.0000e-14
Angular grids for H and He will be reduced by one unit
Partially contracted basis set               ... off
Rotationally invariant grid construction     ... off

Total number of grid points                  ...   184028
Total number of batches                      ...     2892
Average number of points per batch           ...       63
Average number of grid points per atom       ...     5751
Time for grid setup =    1.334 sec

--------------------
COSX GRID GENERATION
--------------------

GRIDX 1
-------
General Integration Accuracy     IntAcc      ... 3.816
Radial Grid Type                 RadialGrid  ... OptM3 with GC (2021)
Angular Grid (max. ang.)         AngularGrid ... 1 (Lebedev-50)
Angular grid pruning method      GridPruning ... 4 (adaptive)
Weight generation scheme         WeightScheme... Becke
Basis function cutoff            BFCut       ... 1.0000e-10
Integration weight cutoff        WCut        ... 1.0000e-14
Angular grids for H and He will be reduced by one unit
Partially contracted basis set               ... on
Rotationally invariant grid construction     ... off

Total number of grid points                  ...    22753
Total number of batches                      ...      375
Average number of points per batch           ...       60
Average number of grid points per atom       ...      711
UseSFitting                                  ... on

GRIDX 2
-------
General Integration Accuracy     IntAcc      ... 4.020
Radial Grid Type                 RadialGrid  ... OptM3 with GC (2021)
Angular Grid (max. ang.)         AngularGrid ... 2 (Lebedev-110)
Angular grid pruning method      GridPruning ... 4 (adaptive)
Weight generation scheme         WeightScheme... Becke
Basis function cutoff            BFCut       ... 1.0000e-10
Integration weight cutoff        WCut        ... 1.0000e-14
Angular grids for H and He will be reduced by one unit
Partially contracted basis set               ... on
Rotationally invariant grid construction     ... off

Total number of grid points                  ...    49133
Total number of batches                      ...      785
Average number of points per batch           ...       62
Average number of grid points per atom       ...     1535
UseSFitting                                  ... on

GRIDX 3
-------
General Integration Accuracy     IntAcc      ... 4.338
Radial Grid Type                 RadialGrid  ... OptM3 with GC (2021)
Angular Grid (max. ang.)         AngularGrid ... 3 (Lebedev-194)
Angular grid pruning method      GridPruning ... 4 (adaptive)
Weight generation scheme         WeightScheme... Becke
Basis function cutoff            BFCut       ... 1.0000e-10
Integration weight cutoff        WCut        ... 1.0000e-14
Angular grids for H and He will be reduced by one unit
Partially contracted basis set               ... on
Rotationally invariant grid construction     ... off

Total number of grid points                  ...   112047
Total number of batches                      ...     1768
Average number of points per batch           ...       63
Average number of grid points per atom       ...     3501
UseSFitting                                  ... on

Time for X-Grid setup             =    1.275 sec

--------------
SCF ITERATIONS
--------------
ITER       Energy         Delta-E        Max-DP      RMS-DP      [F,P]     Damp
               ***  Starting incremental Fock matrix formation  ***
  0  -4591.9730414827   0.000000000000 0.07648371  0.00093096  0.2367507 0.7000
  1  -4592.2707129021  -0.297671419436 0.11565024  0.00092749  0.1560865 0.7000
                               ***Turning on DIIS***
  2  -4592.4119379738  -0.141225071710 0.07986294  0.00057242  0.1092778 0.7000
  3  -4592.4912086312  -0.079270657361 0.10332262  0.00088593  0.0772876 0.0000
  4  -4592.6793682241  -0.188159592950 0.06475815  0.00046864  0.0190929 0.0000
  5  -4592.6853976316  -0.006029407450 0.01176577  0.00010698  0.0149044 0.0000
  6  -4592.6867794629  -0.001381831368 0.00352509  0.00004606  0.0029327 0.0000
  7  -4592.6870008817  -0.000221418762 0.00187734  0.00002413  0.0016868 0.0000
  8  -4592.6870786005  -0.000077718852 0.00162257  0.00001833  0.0013391 0.0000
  9  -4592.6871174937  -0.000038893165 0.00219904  0.00002341  0.0009047 0.0000
               *** Restarting incremental Fock matrix formation ***
                                   *** Resetting DIIS ***
 10  -4592.6871047696   0.000012724128 0.00099591  0.00001008  0.0010124 0.0000
 11  -4592.6870851460   0.000019623553 0.00041671  0.00000384  0.0020109 0.0000
 12  -4592.6871127346  -0.000027588600 0.00041981  0.00000503  0.0009023 0.0000
 13  -4592.6871205717  -0.000007837049 0.00049767  0.00000489  0.0002821 0.0000
 14  -4592.6871228323  -0.000002260650 0.00027470  0.00000307  0.0002428 0.0000
 15  -4592.6871239466  -0.000001114307 0.00021675  0.00000206  0.0001783 0.0000
 16  -4592.6871243526  -0.000000405975 0.00023847  0.00000157  0.0000589 0.0000
 17  -4592.6871244896  -0.000000137030 0.00005730  0.00000043  0.0000165 0.0000
                 **** Energy Check signals convergence ****

               *****************************************************
               *                     SUCCESS                       *
               *           SCF CONVERGED AFTER  18 CYCLES          *
               *****************************************************

Old exchange energy                            =    -61.760883788 Eh
New exchange energy                            =    -61.760888540 Eh
Exchange energy change after final integration =     -0.000004752 Eh
Total energy after final integration           =  -4592.687129134 Eh
Final COS-X integration done in                =    12.602 sec

----------------
TOTAL SCF ENERGY
----------------

Total Energy       :        -4592.68712913 Eh         -124973.37031 eV

Components:
Nuclear Repulsion  :         3211.31835694 Eh           87384.41503 eV
Electronic Energy  :        -7804.00548607 Eh         -212357.78534 eV
One Electron Energy:       -12786.34346973 Eh         -347934.09444 eV
Two Electron Energy:         4982.33798366 Eh          135576.30910 eV
Max COSX asymmetry :            0.00000247 Eh               0.00007 eV

Virial components:
Potential Energy   :        -9173.84840970 Eh         -249633.10633 eV
Kinetic Energy     :         4581.16128057 Eh          124659.73602 eV
Virial Ratio       :            2.00251592


DFT components:
N(Alpha)           :      117.000035012958 electrons
N(Beta)            :      116.000033297541 electrons
N(Total)           :      233.000068310499 electrons
E(X)               :     -245.489870276090 Eh       
E(C)               :      -10.625261409570 Eh       
E(XC)              :     -256.115131685659 Eh       
DFET-embed. en.    :        0.000000000000 Eh       

---------------
SCF CONVERGENCE
---------------

  Last Energy change         ...    1.0735e-07  Tolerance :   1.0000e-06
  Last MAX-Density change    ...    0.0000e+00  Tolerance :   1.0000e-05
  Last RMS-Density change    ...    0.0000e+00  Tolerance :   1.0000e-06
  Last DIIS Error            ...    2.2467e-05  Tolerance :   1.0000e-06

             **** THE GBW FILE WAS UPDATED (input_24.gbw) ****
             **** DENSITY input_24.scfp WAS UPDATED ****
             **** ENERGY FILE WAS UPDATED (input_24.en.tmp) ****
----------------------
UHF SPIN CONTAMINATION
----------------------

Warning: in a DFT calculation there is little theoretical justification to 
         calculate <S**2> as in Hartree-Fock theory. We will do it anyways
         but you should keep in mind that the values have only limited relevance

Expectation value of <S**2>     :     0.765037
Ideal value S*(S+1) for S=0.5   :     0.750000
Deviation                       :     0.015037

             **** THE GBW FILE WAS UPDATED (input_24.gbw) ****
             **** DENSITY input_24.scfp WAS UPDATED ****
----------------
ORBITAL ENERGIES
----------------
                 SPIN UP ORBITALS
  NO   OCC          E(Eh)            E(eV) 
   0   1.0000    -196.638310     -5350.8004 
   1   1.0000     -88.678061     -2413.0527 
   2   1.0000     -88.677948     -2413.0497 
   3   1.0000     -88.676449     -2413.0088 
   4   1.0000     -88.676414     -2413.0079 
   5   1.0000     -88.612709     -2411.2744 
   6   1.0000     -88.612667     -2411.2733 
   7   1.0000     -88.612338     -2411.2643 
   8   1.0000     -88.612308     -2411.2635 
   9   1.0000     -22.014185      -599.0364 
  10   1.0000     -18.855912      -513.0954 
  11   1.0000     -18.520908      -503.9795 
  12   1.0000     -18.515336      -503.8279 
  13   1.0000     -18.515176      -503.8236 
  14   1.0000     -10.016258      -272.5562 
  15   1.0000     -10.016150      -272.5533 
  16   1.0000     -10.013511      -272.4815 
  17   1.0000     -10.013397      -272.4784 
  18   1.0000     -10.005238      -272.2564 
  19   1.0000     -10.005154      -272.2541 
  20   1.0000      -9.993396      -271.9341 
  21   1.0000      -9.993366      -271.9333 
  22   1.0000      -9.991599      -271.8852 
  23   1.0000      -9.991569      -271.8844 
  24   1.0000      -7.730975      -210.3705 
  25   1.0000      -7.730889      -210.3682 
  26   1.0000      -7.730469      -210.3568 
  27   1.0000      -7.730422      -210.3555 
  28   1.0000      -7.667522      -208.6439 
  29   1.0000      -7.667511      -208.6436 
  30   1.0000      -7.666567      -208.6179 
  31   1.0000      -7.666508      -208.6163 
  32   1.0000      -5.696228      -155.0023 
  33   1.0000      -5.696148      -155.0001 
  34   1.0000      -5.695778      -154.9900 
  35   1.0000      -5.695732      -154.9887 
  36   1.0000      -5.692467      -154.8999 
  37   1.0000      -5.692376      -154.8974 
  38   1.0000      -5.691694      -154.8789 
  39   1.0000      -5.691647      -154.8776 
  40   1.0000      -5.685746      -154.7170 
  41   1.0000      -5.685650      -154.7144 
  42   1.0000      -5.685135      -154.7004 
  43   1.0000      -5.685095      -154.6993 
  44   1.0000      -5.631956      -153.2533 
  45   1.0000      -5.631947      -153.2531 
  46   1.0000      -5.631893      -153.2516 
  47   1.0000      -5.631845      -153.2503 
  48   1.0000      -5.626103      -153.0940 
  49   1.0000      -5.626095      -153.0938 
  50   1.0000      -5.625622      -153.0810 
  51   1.0000      -5.625615      -153.0808 
  52   1.0000      -5.624821      -153.0592 
  53   1.0000      -5.624764      -153.0576 
  54   1.0000      -5.624280      -153.0444 
  55   1.0000      -5.624224      -153.0429 
  56   1.0000      -2.408636       -65.5423 
  57   1.0000      -1.449813       -39.4514 
  58   1.0000      -1.439219       -39.1631 
  59   1.0000      -1.437399       -39.1136 
  60   1.0000      -0.643482       -17.5100 
  61   1.0000      -0.643414       -17.5082 
  62   1.0000      -0.617232       -16.7957 
  63   1.0000      -0.596609       -16.2346 
  64   1.0000      -0.596280       -16.2256 
  65   1.0000      -0.572537       -15.5795 
  66   1.0000      -0.572473       -15.5778 
  67   1.0000      -0.489504       -13.3201 
  68   1.0000      -0.488938       -13.3047 
  69   1.0000      -0.487359       -13.2617 
  70   1.0000      -0.487011       -13.2523 
  71   1.0000      -0.422710       -11.5025 
  72   1.0000      -0.421214       -11.4618 
  73   1.0000      -0.409244       -11.1361 
  74   1.0000      -0.404838       -11.0162 
  75   1.0000      -0.377560       -10.2739 
  76   1.0000      -0.374460       -10.1896 
  77   1.0000      -0.292309        -7.9541 
  78   1.0000      -0.292199        -7.9511 
  79   1.0000      -0.277590        -7.5536 
  80   1.0000      -0.277422        -7.5490 
  81   1.0000      -0.258242        -7.0271 
  82   1.0000      -0.253958        -6.9105 
  83   1.0000      -0.240871        -6.5544 
  84   1.0000      -0.238017        -6.4768 
  85   1.0000      -0.196071        -5.3354 
  86   1.0000      -0.195384        -5.3167 
  87   1.0000      -0.189552        -5.1580 
  88   1.0000      -0.187550        -5.1035 
  89   1.0000      -0.183654        -4.9975 
  90   1.0000      -0.182683        -4.9711 
  91   1.0000      -0.179387        -4.8814 
  92   1.0000      -0.155236        -4.2242 
  93   1.0000      -0.144305        -3.9267 
  94   1.0000      -0.144128        -3.9219 
  95   1.0000      -0.142774        -3.8851 
  96   1.0000      -0.141744        -3.8571 
  97   1.0000      -0.098161        -2.6711 
  98   1.0000      -0.096749        -2.6327 
  99   1.0000      -0.088044        -2.3958 
 100   1.0000      -0.087426        -2.3790 
 101   1.0000      -0.079948        -2.1755 
 102   1.0000      -0.079608        -2.1662 
 103   1.0000      -0.070426        -1.9164 
 104   1.0000      -0.051204        -1.3933 
 105   1.0000      -0.042641        -1.1603 
 106   1.0000      -0.040752        -1.1089 
 107   1.0000      -0.032732        -0.8907 
 108   1.0000      -0.028002        -0.7620 
 109   1.0000      -0.013841        -0.3766 
 110   1.0000      -0.004212        -0.1146 
 111   1.0000      -0.001125        -0.0306 
 112   1.0000       0.008626         0.2347 
 113   1.0000       0.016884         0.4594 
 114   1.0000       0.017974         0.4891 
 115   1.0000       0.032662         0.8888 
 116   1.0000       0.058408         1.5894 
 117   0.0000       0.188754         5.1362 
 118   0.0000       0.195467         5.3189 
 119   0.0000       0.196777         5.3546 
 120   0.0000       0.197224         5.3667 
 121   0.0000       0.209355         5.6968 
 122   0.0000       0.212642         5.7863 
 123   0.0000       0.214657         5.8411 
 124   0.0000       0.223406         6.0792 
 125   0.0000       0.226262         6.1569 
 126   0.0000       0.236377         6.4321 
 127   0.0000       0.239849         6.5266 
 128   0.0000       0.240344         6.5401 
 129   0.0000       0.243158         6.6167 
 130   0.0000       0.245479         6.6798 
 131   0.0000       0.247757         6.7418 
 132   0.0000       0.249763         6.7964 
 133   0.0000       0.254022         6.9123 
 134   0.0000       0.254397         6.9225 
 135   0.0000       0.265772         7.2320 
 136   0.0000       0.270612         7.3637 
 137   0.0000       0.276853         7.5335 
 138   0.0000       0.278621         7.5817 
 139   0.0000       0.282666         7.6917 
 140   0.0000       0.282828         7.6961 
 141   0.0000       0.285051         7.7566 
 142   0.0000       0.287076         7.8117 
 143   0.0000       0.292166         7.9502 
 144   0.0000       0.307118         8.3571 
 145   0.0000       0.309624         8.4253 
 146   0.0000       0.309773         8.4294 
 147   0.0000       0.319954         8.7064 
 148   0.0000       0.325790         8.8652 
 149   0.0000       0.329905         8.9772 
 150   0.0000       0.339480         9.2377 
 151   0.0000       0.362732         9.8704 
 152   0.0000       0.375159        10.2086 
 153   0.0000       0.375622        10.2212 
 154   0.0000       0.392870        10.6905 
 155   0.0000       0.394297        10.7294 
 156   0.0000       0.395376        10.7587 
 157   0.0000       0.398045        10.8313 
 158   0.0000       0.399670        10.8756 
 159   0.0000       0.410699        11.1757 
 160   0.0000       0.420317        11.4374 
 161   0.0000       0.423797        11.5321 
 162   0.0000       0.426020        11.5926 
 163   0.0000       0.430518        11.7150 
 164   0.0000       0.446958        12.1623 
 165   0.0000       0.447700        12.1825 
 166   0.0000       0.449671        12.2362 
 167   0.0000       0.450903        12.2697 
 168   0.0000       0.461514        12.5584 
 169   0.0000       0.466658        12.6984 
 170   0.0000       0.472512        12.8577 
 171   0.0000       0.477695        12.9988 
 172   0.0000       0.478391        13.0177 
 173   0.0000       0.486784        13.2461 
 174   0.0000       0.486915        13.2496 
 175   0.0000       0.502394        13.6708 
 176   0.0000       0.502949        13.6859 
 177   0.0000       0.507275        13.8037 
 178   0.0000       0.509158        13.8549 
 179   0.0000       0.512144        13.9361 
 180   0.0000       0.513837        13.9822 
 181   0.0000       0.517940        14.0939 
 182   0.0000       0.521169        14.1817 
 183   0.0000       0.524669        14.2770 
 184   0.0000       0.533690        14.5224 
 185   0.0000       0.542731        14.7685 
 186   0.0000       0.548649        14.9295 
 187   0.0000       0.553071        15.0498 
 188   0.0000       0.555834        15.1250 
 189   0.0000       0.557556        15.1719 
 190   0.0000       0.566554        15.4167 
 191   0.0000       0.568234        15.4624 
 192   0.0000       0.571751        15.5581 
 193   0.0000       0.577787        15.7224 
 194   0.0000       0.579364        15.7653 
 195   0.0000       0.582430        15.8487 
 196   0.0000       0.584254        15.8984 
 197   0.0000       0.585500        15.9323 
 198   0.0000       0.588059        16.0019 
 199   0.0000       0.591005        16.0821 
 200   0.0000       0.597025        16.2459 
 201   0.0000       0.597831        16.2678 
 202   0.0000       0.605095        16.4655 
 203   0.0000       0.609219        16.5777 
 204   0.0000       0.611582        16.6420 
 205   0.0000       0.612565        16.6688 
 206   0.0000       0.625958        17.0332 
 207   0.0000       0.626095        17.0369 
 208   0.0000       0.631004        17.1705 
 209   0.0000       0.631459        17.1829 
 210   0.0000       0.640824        17.4377 
 211   0.0000       0.641004        17.4426 
 212   0.0000       0.648205        17.6386 
 213   0.0000       0.649695        17.6791 
 214   0.0000       0.655612        17.8401 
 215   0.0000       0.658288        17.9129 
 216   0.0000       0.663437        18.0530 
 217   0.0000       0.666129        18.1263 
 218   0.0000       0.666921        18.1478 
 219   0.0000       0.674563        18.3558 
 220   0.0000       0.682951        18.5841 
 221   0.0000       0.688172        18.7261 
 222   0.0000       0.698052        18.9950 
 223   0.0000       0.707764        19.2592 
 224   0.0000       0.715753        19.4766 
 225   0.0000       0.722962        19.6728 
 226   0.0000       0.733765        19.9668 
 227   0.0000       0.745740        20.2926 
 228   0.0000       0.747172        20.3316 
 229   0.0000       0.756271        20.5792 
 230   0.0000       0.774008        21.0618 
 231   0.0000       0.782596        21.2955 
 232   0.0000       0.789043        21.4709 
 233   0.0000       0.804927        21.9032 
 234   0.0000       0.806151        21.9365 
 235   0.0000       0.837311        22.7844 
 236   0.0000       0.863846        23.5064 
 237   0.0000       0.869070        23.6486 
 238   0.0000       0.874312        23.7912 
 239   0.0000       0.882742        24.0206 
 240   0.0000       0.890103        24.2209 
 241   0.0000       0.898908        24.4605 
 242   0.0000       0.905780        24.6475 
 243   0.0000       0.907098        24.6834 
 244   0.0000       0.918517        24.9941 
 245   0.0000       0.918712        24.9994 
 246   0.0000       0.922803        25.1107 
 247   0.0000       0.937159        25.5014 
 248   0.0000       0.957251        26.0481 
 249   0.0000       0.970685        26.4137 
 250   0.0000       0.972391        26.4601 
 251   0.0000       0.983662        26.7668 
 252   0.0000       0.984851        26.7992 
 253   0.0000       0.986946        26.8562 
 254   0.0000       0.996771        27.1235 
 255   0.0000       1.003868        27.3166 
 256   0.0000       1.010478        27.4965 
 257   0.0000       1.020016        27.7561 
 258   0.0000       1.025893        27.9160 
 259   0.0000       1.026487        27.9321 
 260   0.0000       1.033152        28.1135 
 261   0.0000       1.054140        28.6846 
 262   0.0000       1.054365        28.6907 
 263   0.0000       1.073478        29.2108 
 264   0.0000       1.077298        29.3148 
 265   0.0000       1.086167        29.5561 
 266   0.0000       1.089926        29.6584 
 267   0.0000       1.101075        29.9618 
 268   0.0000       1.106641        30.1132 
 269   0.0000       1.125739        30.6329 
 270   0.0000       1.128287        30.7022 
 271   0.0000       1.133126        30.8339 
 272   0.0000       1.137689        30.9581 
 273   0.0000       1.147675        31.2298 
 274   0.0000       1.151292        31.3282 
 275   0.0000       1.153079        31.3769 
 276   0.0000       1.166163        31.7329 
 277   0.0000       1.166337        31.7376 
 278   0.0000       1.184089        32.2207 
 279   0.0000       1.192481        32.4491 
 280   0.0000       1.195403        32.5286 
 281   0.0000       1.219420        33.1821 
 282   0.0000       1.232490        33.5378 
 283   0.0000       1.272259        34.6199 
 284   0.0000       1.274995        34.6944 
 285   0.0000       1.283660        34.9302 
 286   0.0000       1.284648        34.9571 
 287   0.0000       1.297410        35.3043 
 288   0.0000       1.312168        35.7059 
 289   0.0000       1.340692        36.4821 
 290   0.0000       1.359211        36.9860 
 291   0.0000       1.361374        37.0449 
 292   0.0000       1.372462        37.3466 
 293   0.0000       1.391496        37.8645 
 294   0.0000       1.408700        38.3327 
 295   0.0000       1.420789        38.6616 
 296   0.0000       1.438567        39.1454 
 297   0.0000       1.444188        39.2983 
 298   0.0000       1.454666        39.5835 
 299   0.0000       1.470521        40.0149 
 300   0.0000       1.470910        40.0255 
 301   0.0000       1.477171        40.1959 
 302   0.0000       1.478146        40.2224 
 303   0.0000       1.492406        40.6104 
 304   0.0000       1.493643        40.6441 
 305   0.0000       1.519202        41.3396 
 306   0.0000       1.524036        41.4711 
 307   0.0000       1.524153        41.4743 
 308   0.0000       1.549292        42.1584 
 309   0.0000       1.550637        42.1950 
 310   0.0000       1.567297        42.6483 
 311   0.0000       1.567677        42.6587 
 312   0.0000       1.602753        43.6131 
 313   0.0000       1.603761        43.6406 
 314   0.0000       1.614315        43.9277 
 315   0.0000       1.618620        44.0449 
 316   0.0000       1.625988        44.2454 
 317   0.0000       1.641984        44.6807 
 318   0.0000       1.662533        45.2398 
 319   0.0000       1.665745        45.3272 
 320   0.0000       1.666773        45.3552 
 321   0.0000       1.674862        45.5753 
 322   0.0000       1.678576        45.6764 
 323   0.0000       1.706945        46.4483 
 324   0.0000       1.708958        46.5031 
 325   0.0000       1.714485        46.6535 
 326   0.0000       1.726828        46.9894 
 327   0.0000       1.734095        47.1871 
 328   0.0000       1.745394        47.4946 
 329   0.0000       1.752396        47.6851 
 330   0.0000       1.765375        48.0383 
 331   0.0000       1.767282        48.0902 
 332   0.0000       1.776815        48.3496 
 333   0.0000       1.788810        48.6760 
 334   0.0000       1.790769        48.7293 
 335   0.0000       1.805967        49.1428 
 336   0.0000       1.815531        49.4031 
 337   0.0000       1.830134        49.8005 
 338   0.0000       1.837544        50.0021 
 339   0.0000       1.841331        50.1052 
 340   0.0000       1.843346        50.1600 
 341   0.0000       1.847859        50.2828 
 342   0.0000       1.853710        50.4420 
 343   0.0000       1.857925        50.5567 
 344   0.0000       1.862279        50.6752 
 345   0.0000       1.865700        50.7683 
 346   0.0000       1.870087        50.8877 
 347   0.0000       1.914324        52.0914 
 348   0.0000       1.922262        52.3074 
 349   0.0000       1.937101        52.7112 
 350   0.0000       1.938689        52.7544 
 351   0.0000       1.953208        53.1495 
 352   0.0000       1.954064        53.1728 
 353   0.0000       1.965933        53.4958 
 354   0.0000       1.967166        53.5293 
 355   0.0000       1.969536        53.5938 
 356   0.0000       1.969849        53.6023 
 357   0.0000       2.010738        54.7150 
 358   0.0000       2.011495        54.7356 
 359   0.0000       2.037421        55.4410 
 360   0.0000       2.046629        55.6916 
 361   0.0000       2.066897        56.2431 
 362   0.0000       2.067385        56.2564 
 363   0.0000       2.071860        56.3782 
 364   0.0000       2.076548        56.5057 
 365   0.0000       2.101279        57.1787 
 366   0.0000       2.104208        57.2584 
 367   0.0000       2.125450        57.8364 
 368   0.0000       2.126961        57.8775 
 369   0.0000       2.146347        58.4051 
 370   0.0000       2.151234        58.5380 
 371   0.0000       2.158374        58.7323 
 372   0.0000       2.162395        58.8418 
 373   0.0000       2.180354        59.3304 
 374   0.0000       2.180383        59.3312 
 375   0.0000       2.192186        59.6524 
 376   0.0000       2.204336        59.9830 
 377   0.0000       2.220232        60.4156 
 378   0.0000       2.221522        60.4507 
 379   0.0000       2.226742        60.5927 
 380   0.0000       2.238427        60.9107 
 381   0.0000       2.240074        60.9555 
 382   0.0000       2.242699        61.0270 
 383   0.0000       2.248507        61.1850 
 384   0.0000       2.266678        61.6795 
 385   0.0000       2.272344        61.8336 
 386   0.0000       2.278085        61.9898 
 387   0.0000       2.287518        62.2465 
 388   0.0000       2.289832        62.3095 
 389   0.0000       2.313060        62.9416 
 390   0.0000       2.313973        62.9664 
 391   0.0000       2.334825        63.5338 
 392   0.0000       2.340144        63.6786 
 393   0.0000       2.371779        64.5394 
 394   0.0000       2.395903        65.1958 
 395   0.0000       2.401092        65.3370 
 396   0.0000       2.410749        65.5998 
 397   0.0000       2.414122        65.6916 
 398   0.0000       2.430972        66.1501 
 399   0.0000       2.436614        66.3036 
 400   0.0000       2.441458        66.4355 
 401   0.0000       2.461499        66.9808 
 402   0.0000       2.462576        67.0101 
 403   0.0000       2.502432        68.0946 
 404   0.0000       2.507927        68.2442 
 405   0.0000       2.531830        68.8946 
 406   0.0000       2.541199        69.1496 
 407   0.0000       2.543983        69.2253 
 408   0.0000       2.545872        69.2767 
 409   0.0000       2.558004        69.6068 
 410   0.0000       2.558493        69.6201 
 411   0.0000       2.587768        70.4167 
 412   0.0000       2.610038        71.0227 
 413   0.0000       2.617100        71.2149 
 414   0.0000       2.618870        71.2631 
 415   0.0000       2.624552        71.4177 
 416   0.0000       2.633982        71.6743 
 417   0.0000       2.640884        71.8621 
 418   0.0000       2.673007        72.7362 
 419   0.0000       2.674793        72.7848 
 420   0.0000       2.676895        72.8420 
 421   0.0000       2.678345        72.8815 
 422   0.0000       2.702110        73.5282 
 423   0.0000       2.702365        73.5351 
 424   0.0000       2.758786        75.0704 
 425   0.0000       2.762283        75.1656 
 426   0.0000       2.766542        75.2814 
 427   0.0000       2.771174        75.4075 
 428   0.0000       2.792533        75.9887 
 429   0.0000       2.797948        76.1360 
 430   0.0000       2.822318        76.7992 
 431   0.0000       2.822803        76.8124 
 432   0.0000       2.851564        77.5950 
 433   0.0000       2.853983        77.6608 
 434   0.0000       2.868602        78.0586 
 435   0.0000       2.868994        78.0693 
 436   0.0000       2.892066        78.6971 
 437   0.0000       2.913375        79.2770 
 438   0.0000       2.913772        79.2878 
 439   0.0000       2.918011        79.4031 
 440   0.0000       2.920343        79.4666 
 441   0.0000       2.930121        79.7326 
 442   0.0000       2.942395        80.0666 
 443   0.0000       2.951429        80.3125 
 444   0.0000       2.971726        80.8648 
 445   0.0000       3.011921        81.9585 
 446   0.0000       3.027964        82.3951 
 447   0.0000       3.028312        82.4046 
 448   0.0000       3.032286        82.5127 
 449   0.0000       3.072621        83.6103 
 450   0.0000       3.073543        83.6353 
 451   0.0000       3.189740        86.7972 
 452   0.0000       3.190799        86.8260 
 453   0.0000       3.332082        90.6706 
 454   0.0000       3.332681        90.6869 
 455   0.0000       3.397893        92.4614 
 456   0.0000       3.425857        93.2223 
 457   0.0000       3.433747        93.4370 
 458   0.0000       3.447255        93.8046 
 459   0.0000       3.480342        94.7049 
 460   0.0000       3.480884        94.7197 
 461   0.0000       3.518037        95.7306 
 462   0.0000       3.518464        95.7423 
 463   0.0000       3.541498        96.3691 
 464   0.0000       3.541787        96.3769 
 465   0.0000       3.566613        97.0525 
 466   0.0000       3.567310        97.0714 
 467   0.0000       3.595365        97.8349 
 468   0.0000       3.595751        97.8454 
 469   0.0000       3.805081       103.5415 
 470   0.0000       3.836837       104.4056 
 471   0.0000       3.867648       105.2441 
 472   0.0000       3.991648       108.6183 
 473   0.0000       4.216620       114.7401 
 474   0.0000       4.544031       123.6494 
 475   0.0000       4.556440       123.9870 
 476   0.0000       4.571575       124.3989 
 477   0.0000       4.597865       125.1143 
 478   0.0000       4.615294       125.5885 
 479   0.0000       4.630388       125.9993 
 480   0.0000       5.203925       141.6060 
 481   0.0000       7.015032       190.8887 
 482   0.0000       7.064113       192.2243 
 483   0.0000       7.074086       192.4957 
 484   0.0000      18.745391       510.0880 
 485   0.0000      18.781288       511.0648 
 486   0.0000      18.971577       516.2428 
 487   0.0000      19.009052       517.2626 
 488   0.0000      19.055885       518.5370 
 489   0.0000      19.058643       518.6120 
 490   0.0000      19.226953       523.1920 
 491   0.0000      19.300807       525.2017 
 492   0.0000      19.787233       538.4380 
 493   0.0000      21.678851       589.9115 
 494   0.0000      21.710743       590.7793 
 495   0.0000      22.117682       601.8527 
 496   0.0000      22.118990       601.8883 
[...]
Total number of batches                      ...      235
Average number of points per batch           ...       59
Average number of grid points per atom       ...      436

Memory available               ... 870.3 MB
Memory needed per perturbation ...  23.5 MB
Perturbations treated per batch... 3
Number of batches              ... 1
     CP-SCF ITERATION   0:   4.5849e-02 (   2.9 sec   0/  3 done)
     CP-SCF ITERATION   1:   1.6290e-03 (   2.9 sec   0/  3 done)
     CP-SCF ITERATION   2:   4.4039e-04 (   3.0 sec   3/  3 done)
                    *** THE CP-SCF HAS CONVERGED ***

Forming final perturbed densities           ... done
Transforming perturbed density to AO basis  ... done

 Raw HFC matrix (all values in MHz): 
 -----------------------------------
                 0.6525              -0.3166              -0.3645
                -0.3174              -0.4996               0.1272
                -0.3636               0.1269              -0.4877

 A(FC)          -0.1109              -0.1109              -0.1109
 A(SD)          -0.4493              -0.5146               0.9639
 A(ORB+DIA)      0.0028               0.0033              -0.0082    A(PC) =  -0.0007
 A(ORB)          0.0029               0.0034              -0.0084    A(PC) =  -0.0007
 A(DIA)         -0.0001              -0.0000               0.0002    A(PC) =   0.0000
             ----------           ----------           ----------
 A(Tot)         -0.5574              -0.6222               0.8448    A(iso)=   -0.1116
 Orientation: 
  X          -0.3653232            0.0600932           -0.9289390
  Y          -0.7286321           -0.6395177            0.2451781
  Z          -0.5793394            0.7664241            0.2774165

Notes:  (1) The A matrix conforms to the "SAI" spin Hamiltonian convention.
        (2) Tensor is right-handed.

 Raw EFG matrix (all values in a.u.**-3):
 -----------------------------------
            -0.0140       0.0156       0.1950
             0.0156      -0.1415       0.0170
             0.1950       0.0170       0.1555

 V(El)       0.5016       0.5255      -1.0272
 V(Nuc)     -0.6402      -0.6716       1.3118
         ----------   ----------   ----------
 V(Tot)     -0.1385      -0.1461       0.2846 
 Orientation: 
  X       0.6061799    0.5764427   -0.5479597
  Y       0.6623009   -0.7473253   -0.0535016
  Z      -0.4403447   -0.3304826   -0.8347921

Note: Tensor is right-handed


 Quadrupole tensor eigenvalues (in MHz;Q= 0.0029 I=  1.0)
  e**2qQ            =     0.191105 MHz 
  e**2qQ/(4I*(2I-1))=     0.047776 MHz 
  eta               =     0.026387
  NOTE: the diagonal representation of the SH term I*Q*I = e**2qQ/(4I(2I-1))*[-(1-eta),-(1+eta),2]

 RHO(0)=      0.441784843 a.u.**-3

 -----------------------------------------------------------
 Nucleus  31H : A:ISTP=    1 I=  0.5 P=533.5514 MHz/au**3
                Q:ISTP=    2 I=  1.0 Q=  0.0029 barn     
 -----------------------------------------------------------
 Solving for nuclear perturbation:
Forming RHS of the CP-SCF equations         ... 
Calc. nucleus orbit integrals (SHARK)       ... done

------------------------------------------------------------------------------
                           ORCA CP-SCF CALCULATION
------------------------------------------------------------------------------

Input orbitals are from        ... input_24.gbw
Input Perturbation             ... input_24.pin.tmp
Wavefunction output            ... input_24.pout.tmp
Perturbation mode              ... Imaginary perturbation
Solver                         ... POPLE
Max. number of iterations      ... 64
Convergence tolerance          ... 1.000e-03
Integral handling              ... Direct
DFT GridXC                     ... 1
COSX GridX                     ... 1
COSX IntAccX                   ... 3.067
COSX Algorithm                 ... Auto
Number of perturbations        ... 3
Number of operators            ... 2
Orbital ranges used for CP-SCF:
 Operator 0:  Orbitals   0...116  to 117...516
 Operator 1:  Orbitals   0...115  to 116...516
Variables per perturbation     ... 93316
DFT calculation                         ... on
XC functional terms                     ... off
Hybrid DFT                              ... on
   Exchange mixing (SCF)                ...  0.200
   Exchange mixing (CP-SCF)             ...  0.200
   GGA exch. scaling(SCF)               ...  0.720
   GGA exch. scaling (CP-SCF)           ...  0.720
   GGA corr. scaling (SCF)              ...  0.810
   GGA corr. scaling (CP-SCF)           ...  0.810

CP-SCF GRID
-----------

General Integration Accuracy     IntAcc      ... 3.467
Radial Grid Type                 RadialGrid  ... OptM3 with GC (2021)
Angular Grid (max. ang.)         AngularGrid ... 1 (Lebedev-50)
Angular grid pruning method      GridPruning ... 4 (adaptive)
Weight generation scheme         WeightScheme... Becke
Basis function cutoff            BFCut       ... 1.0000e-10
Integration weight cutoff        WCut        ... 1.0000e-14
Angular grids for H and He will be reduced by one unit
Partially contracted basis set               ... off
Rotationally invariant grid construction     ... off

Total number of grid points                  ...    31383
Total number of batches                      ...      507
Average number of points per batch           ...       61
Average number of grid points per atom       ...      981

CP-SCF GRIDX
------------

General Integration Accuracy     IntAcc      ... 3.067
Radial Grid Type                 RadialGrid  ... OptM3 with GC (2021)
Angular Grid (max. ang.)         AngularGrid ... 1 (Lebedev-50)
Angular grid pruning method      GridPruning ... 4 (adaptive)
Weight generation scheme         WeightScheme... Becke
Basis function cutoff            BFCut       ... 1.0000e-10
Integration weight cutoff        WCut        ... 1.0000e-14
Angular grids for H and He will be reduced by one unit
Partially contracted basis set               ... on
Rotationally invariant grid construction     ... off

Total number of grid points                  ...    13952
Total number of batches                      ...      235
Average number of points per batch           ...       59
Average number of grid points per atom       ...      436

Memory available               ... 868.7 MB
Memory needed per perturbation ...  23.5 MB
Perturbations treated per batch... 3
Number of batches              ... 1
     CP-SCF ITERATION   0:   4.2111e-02 (   2.9 sec   0/  3 done)
     CP-SCF ITERATION   1:   1.4273e-03 (   2.9 sec   1/  3 done)
     CP-SCF ITERATION   2:   2.5823e-04 (   2.4 sec   3/  3 done)
                    *** THE CP-SCF HAS CONVERGED ***

Forming final perturbed densities           ... done
Transforming perturbed density to AO basis  ... done

 Raw HFC matrix (all values in MHz): 
 -----------------------------------
                 0.3990              -0.2151              -0.0487
                -0.2150              -0.1962               0.0191
                -0.0480               0.0192              -0.2848

 A(FC)          -0.0271              -0.0271              -0.0271
 A(SD)          -0.2395              -0.2640               0.5035
 A(ORB+DIA)      0.0013               0.0023              -0.0042    A(PC) =  -0.0002
 A(ORB)          0.0013               0.0023              -0.0043    A(PC) =  -0.0002
 A(DIA)         -0.0001              -0.0000               0.0001    A(PC) =   0.0000
             ----------           ----------           ----------
 A(Tot)         -0.2653              -0.2888               0.4721    A(iso)=   -0.0273
 Orientation: 
  X           0.3142562           -0.0225850           -0.9490695
  Y           0.9393990            0.1516817            0.3074445
  Z           0.1370129           -0.9881713            0.0688832

Notes:  (1) The A matrix conforms to the "SAI" spin Hamiltonian convention.
        (2) Tensor is right-handed.

 Raw EFG matrix (all values in a.u.**-3):
 -----------------------------------
             0.0406      -0.2140      -0.0119
            -0.2140       0.1068       0.0047
            -0.0119       0.0047      -0.1473

 V(El)       0.5078       0.8512      -1.3590
 V(Nuc)     -0.6467      -1.0028       1.6495
         ----------   ----------   ----------
 V(Tot)     -0.1388      -0.1516       0.2905 
 Orientation: 
  X      -0.6184080   -0.4403804    0.6508737
  Y      -0.5496064   -0.3496233   -0.7587466
  Z       0.5616978   -0.8269393   -0.0258260

Note: Tensor is right-handed


 Quadrupole tensor eigenvalues (in MHz;Q= 0.0029 I=  1.0)
  e**2qQ            =     0.195050 MHz 
  e**2qQ/(4I*(2I-1))=     0.048762 MHz 
  eta               =     0.044044
  NOTE: the diagonal representation of the SH term I*Q*I = e**2qQ/(4I(2I-1))*[-(1-eta),-(1+eta),2]

 RHO(0)=      0.445710319 a.u.**-3

 -----------------------------------------------------------
 Nucleus   0V : A:ISTP=   51 I=  3.5 P=140.5173 MHz/au**3
                Q:ISTP=   51 I=  3.5 Q= -0.0430 barn     
 -----------------------------------------------------------
 Solving for nuclear perturbation:
Forming RHS of the CP-SCF equations         ... 
Calc. nucleus orbit integrals (SHARK)       ... done

------------------------------------------------------------------------------
                           ORCA CP-SCF CALCULATION
------------------------------------------------------------------------------

Input orbitals are from        ... input_24.gbw
Input Perturbation             ... input_24.pin.tmp
Wavefunction output            ... input_24.pout.tmp
Perturbation mode              ... Imaginary perturbation
Solver                         ... POPLE
Max. number of iterations      ... 64
Convergence tolerance          ... 1.000e-03
Integral handling              ... Direct
DFT GridXC                     ... 1
COSX GridX                     ... 1
COSX IntAccX                   ... 3.067
COSX Algorithm                 ... Auto
Number of perturbations        ... 3
Number of operators            ... 2
Orbital ranges used for CP-SCF:
 Operator 0:  Orbitals   0...116  to 117...516
 Operator 1:  Orbitals   0...115  to 116...516
Variables per perturbation     ... 93316
DFT calculation                         ... on
XC functional terms                     ... off
Hybrid DFT                              ... on
   Exchange mixing (SCF)                ...  0.200
   Exchange mixing (CP-SCF)             ...  0.200
   GGA exch. scaling(SCF)               ...  0.720
   GGA exch. scaling (CP-SCF)           ...  0.720
   GGA corr. scaling (SCF)              ...  0.810
   GGA corr. scaling (CP-SCF)           ...  0.810

CP-SCF GRID
-----------

General Integration Accuracy     IntAcc      ... 3.467
Radial Grid Type                 RadialGrid  ... OptM3 with GC (2021)
Angular Grid (max. ang.)         AngularGrid ... 1 (Lebedev-50)
Angular grid pruning method      GridPruning ... 4 (adaptive)
Weight generation scheme         WeightScheme... Becke
Basis function cutoff            BFCut       ... 1.0000e-10
Integration weight cutoff        WCut        ... 1.0000e-14
Angular grids for H and He will be reduced by one unit
Partially contracted basis set               ... off
Rotationally invariant grid construction     ... off

Total number of grid points                  ...    31383
Total number of batches                      ...      507
Average number of points per batch           ...       61
Average number of grid points per atom       ...      981

CP-SCF GRIDX
------------

General Integration Accuracy     IntAcc      ... 3.067
Radial Grid Type                 RadialGrid  ... OptM3 with GC (2021)
Angular Grid (max. ang.)         AngularGrid ... 1 (Lebedev-50)
Angular grid pruning method      GridPruning ... 4 (adaptive)
Weight generation scheme         WeightScheme... Becke
Basis function cutoff            BFCut       ... 1.0000e-10
Integration weight cutoff        WCut        ... 1.0000e-14
Angular grids for H and He will be reduced by one unit
Partially contracted basis set               ... on
Rotationally invariant grid construction     ... off

Total number of grid points                  ...    13952
Total number of batches                      ...      235
Average number of points per batch           ...       59
Average number of grid points per atom       ...      436

Memory available               ... 867.2 MB
Memory needed per perturbation ...  23.5 MB
Perturbations treated per batch... 3
Number of batches              ... 1
     CP-SCF ITERATION   0:   1.2199e+01 (   3.1 sec   0/  3 done)
     CP-SCF ITERATION   1:   1.8832e+00 (   2.9 sec   0/  3 done)
     CP-SCF ITERATION   2:   3.2932e-01 (   2.9 sec   0/  3 done)
     CP-SCF ITERATION   3:   4.7492e-02 (   2.9 sec   0/  3 done)
     CP-SCF ITERATION   4:   1.1686e-02 (   2.9 sec   0/  3 done)
     CP-SCF ITERATION   5:   2.3971e-03 (   3.0 sec   0/  3 done)
     CP-SCF ITERATION   6:   4.2549e-04 (   3.0 sec   3/  3 done)
                    *** THE CP-SCF HAS CONVERGED ***

Forming final perturbed densities           ... done
Transforming perturbed density to AO basis  ... done

 Raw HFC matrix (all values in MHz): 
 -----------------------------------
              -122.1860               1.0165              99.3638
                 1.0625             -69.3176              -6.4744
                99.3092              -6.5028            -328.2910

 A(FC)        -162.2638            -162.2638            -162.2638
 A(SD)          99.6621              87.4645            -187.1266
 A(ORB+DIA)     -6.4150              -7.4681             -19.1201    A(PC) = -11.0011
 A(ORB)         -6.4146              -7.4686             -19.1200    A(PC) = -11.0011
 A(DIA)         -0.0004               0.0005              -0.0001    A(PC) =  -0.0000
             ----------           ----------           ----------
 A(Tot)        -69.0167             -82.2674            -368.5104    A(iso)= -173.2649
 Orientation: 
  X          -0.0962696           -0.9223933           -0.3740624
  Y           0.9934385           -0.1123525            0.0213742
  Z          -0.0617423           -0.3695503            0.9271572

Notes:  (1) The A matrix conforms to the "SAI" spin Hamiltonian convention.
        (2) Tensor is right-handed.

 Raw EFG matrix (all values in a.u.**-3):
 -----------------------------------
            -0.0903      -0.4780      -0.1466
            -0.4780      -0.1423      -0.1861
            -0.1466      -0.1861       0.2326

 V(El)       0.3215       0.5300      -0.8515
 V(Nuc)     -0.0322      -0.1617       0.1939
         ----------   ----------   ----------
 V(Tot)      0.2892       0.3684      -0.6576 
 Orientation: 
  X      -0.3684042    0.6540121    0.6607166
  Y       0.0072912   -0.7086490    0.7055236
  Z       0.9296371    0.2647353    0.2563007

Note: Tensor is right-handed


 Quadrupole tensor eigenvalues (in MHz;Q=-0.0430 I=  3.5)
  e**2qQ            =     6.644085 MHz 
  e**2qQ/(4I*(2I-1))=     0.079096 MHz 
  eta               =     0.120352
  NOTE: the diagonal representation of the SH term I*Q*I = e**2qQ/(4I(2I-1))*[-(1-eta),-(1+eta),2]

 RHO(0)=   8115.243481853 a.u.**-3


--------------------------------------------------------------------------------
----------------------------------------------------------------------------
                           ORCA EULER ANGLE PROGRAM
----------------------------------------------------------------------------

Only g-tensor available        -->  using g-tensor as reference tensor

Reference tensor               ...  g

g-tensor ordering              ...  |g_min> --> |gx>
                                    |g_mid> --> |gy>
                                    |g_max> --> |gz>

A- and EFG-tensor ordering     ...  the axes |Ax>, |Qx>, |Ay>, etc. are assigned
                                    such that the Euler rotation is minimal. You
                                    can find the respective eigenvalues as Ax,
                                    EFGx, Ay, etc. in the tables below.
                                    The relation of |Ax>, |Ay>,  etc. to Amin, Amid, etc.
                                    (as printed in the ORCA EPR/NMR CALCULATION Output)
                                    is obtained in the detailed printout.

Euler rotation around          ...  z - y - z
   First rotation              -->  by alpha around z
   Second rotation             -->  by beta around y'
   Third rotation              -->  by gamma around z''
   Positive / Negative angle   -->  clockwise / counterclockwise rotation

Plot EFG-tensors                    (-)
Plot HFC-tensors                    (-)
Detailed Printout                   (-)

-------------------------------------------------------------------------
          Euler rotation of hyperfine tensor to g-tensor
-------------------------------------------------------------------------

-------------------------------------------------------------------
 Atom  |   Alpha    Beta    Gamma   |   Ax       Ay       Az 
       |          [degrees]         |           [MHz]         
-------------------------------------------------------------------
 19H     -153.2     50.4    121.7      -0.62     0.84    -0.56
 20H     -118.8     29.1     94.3      -0.29     0.47    -0.27
 21H      -13.2     33.4    -22.0      -0.08     0.50    -0.09
 22H      -41.0     12.1     21.3      -0.21     0.47    -0.21
 23H       68.4     14.6    -96.7      -0.28     0.51    -0.27
 24H       78.3      8.9   -119.1      -0.39     0.98    -0.46
 26H       88.9     13.8    -59.6      -0.27     0.51    -0.27
 27H      100.2      9.3    -59.0      -0.39     0.98    -0.46
 28H     -136.2     11.3    156.3      -0.21     0.47    -0.21
 29H     -168.2     36.6   -156.1      -0.08     0.50    -0.09
 30H      -26.2     51.1     58.0      -0.62     0.84    -0.56
 31H      -61.6     28.8     86.7      -0.29     0.47    -0.27
  0V      -88.5      2.2     88.9    -368.51   -82.27   -69.02
-------------------------------------------------------------------


-------------------------------------------------------------------------------
    Euler rotation of Electric Field Gradient (EFG) tensor to g-tensor
-------------------------------------------------------------------------------

-------------------------------------------------------------------
 Atom  |   Alpha    Beta    Gamma  |   EFGx     EFGy     EFGz
       |          [degrees]        |         [a.u.**-3]       
-------------------------------------------------------------------
 19H     -172.5     37.8   -151.0     -0.14     0.28    -0.15
 20H      155.4     33.3   -120.4     -0.14    -0.15     0.29
 21H      -48.0     10.3     67.1      0.27    -0.14    -0.13
 22H     -139.7      4.7    175.4     -0.15     0.29    -0.14
 23H      -46.3     44.6     68.1     -0.14    -0.15     0.29
 24H     -162.1     20.9   -163.3     -0.15     0.29    -0.14
 26H     -132.9     44.5    111.6     -0.14    -0.15     0.29
 27H      -18.6     21.5    -15.8     -0.15     0.29    -0.14
 28H      -40.2      5.1      4.9     -0.15     0.28    -0.14
 29H     -130.0     10.2    111.3      0.27    -0.14    -0.13
 30H       -7.8     37.9    -28.3     -0.14     0.28    -0.15
 31H       23.9     33.5    -58.6     -0.14    -0.15     0.29
  0V       88.5     36.2    -88.2      0.29    -0.66     0.37
-------------------------------------------------------------------


Maximum memory used throughout the entire EPRNMR-calculation: 221.3 MB

Timings for individual modules:

Sum of individual times         ...     1652.398 sec (=  27.540 min)
GTO integral calculation        ...        1.427 sec (=   0.024 min)   0.1 %
Spin-Orbit-Coupling Matrices    ...        6.775 sec (=   0.113 min)   0.4 %
SCF iterations                  ...      116.303 sec (=   1.938 min)   7.0 %
EPR/NMR calculation             ...     1527.894 sec (=  25.465 min)  92.5 %
                             ****ORCA TERMINATED NORMALLY****
TOTAL RUN TIME: 0 days 0 hours 27 minutes 33 seconds 649 msec
