
                                 *****************
                                 * O   R   C   A *
                                 *****************

                                            #,                                       
                                            ###                                      
                                            ####                                     
                                            #####                                    
                                            ######                                   
                                           ########,                                 
                                     ,,################,,,,,                         
                               ,,#################################,,                 
                          ,,##########################################,,             
                       ,#########################################, ''#####,          
                    ,#############################################,,   '####,        
                  ,##################################################,,,,####,       
                ,###########''''           ''''###############################       
              ,#####''   ,,,,##########,,,,          '''####'''          '####       
            ,##' ,,,,###########################,,,                        '##       
           ' ,,###''''                  '''############,,,                           
         ,,##''                                '''############,,,,        ,,,,,,###''
      ,#''                                            '''#######################'''  
     '                                                          ''''####''''         
             ,#######,   #######,   ,#######,      ##                                
            ,#'     '#,  ##    ##  ,#'     '#,    #''#        ######   ,####,        
            ##       ##  ##   ,#'  ##            #'  '#       #        #'  '#        
            ##       ##  #######   ##           ,######,      #####,   #    #        
            '#,     ,#'  ##    ##  '#,     ,#' ,#      #,         ##   #,  ,#        
             '#######'   ##     ##  '#######'  #'      '#     #####' # '####'        



                  #######################################################
                  #                        -***-                        #
                  #          Department of theory and spectroscopy      #
                  #    Directorship and core code : Frank Neese         #
                  #        Max Planck Institute fuer Kohlenforschung    #
                  #                Kaiser Wilhelm Platz 1               #
                  #                 D-45470 Muelheim/Ruhr               #
                  #                      Germany                        #
                  #                                                     #
                  #                  All rights reserved                #
                  #                        -***-                        #
                  #######################################################


                         Program Version 5.0.4 -  RELEASE  -


 With contributions from (in alphabetic order):
   Daniel Aravena         : Magnetic Suceptibility
   Michael Atanasov       : Ab Initio Ligand Field Theory (pilot matlab implementation)
   Alexander A. Auer      : GIAO ZORA, VPT2 properties, NMR spectrum
   Ute Becker             : Parallelization
   Giovanni Bistoni       : ED, misc. LED, open-shell LED, HFLD
   Martin Brehm           : Molecular dynamics
   Dmytro Bykov           : SCF Hessian
   Vijay G. Chilkuri      : MRCI spin determinant printing, contributions to CSF-ICE
   Dipayan Datta          : RHF DLPNO-CCSD density
   Achintya Kumar Dutta   : EOM-CC, STEOM-CC
   Dmitry Ganyushin       : Spin-Orbit,Spin-Spin,Magnetic field MRCI
   Miquel Garcia          : C-PCM and meta-GGA Hessian, CC/C-PCM, Gaussian charge scheme
   Yang Guo               : DLPNO-NEVPT2, F12-NEVPT2, CIM, IAO-localization
   Andreas Hansen         : Spin unrestricted coupled pair/coupled cluster methods
   Benjamin Helmich-Paris : MC-RPA, TRAH-SCF, COSX integrals
   Lee Huntington         : MR-EOM, pCC
   Robert Izsak           : Overlap fitted RIJCOSX, COSX-SCS-MP3, EOM
   Marcus Kettner         : VPT2
   Christian Kollmar      : KDIIS, OOCD, Brueckner-CCSD(T), CCSD density, CASPT2, CASPT2-K
   Simone Kossmann        : Meta GGA functionals, TD-DFT gradient, OOMP2, MP2 Hessian
   Martin Krupicka        : Initial AUTO-CI
   Lucas Lang             : DCDCAS
   Marvin Lechner         : AUTO-CI (C++ implementation), FIC-MRCC
   Dagmar Lenk            : GEPOL surface, SMD
   Dimitrios Liakos       : Extrapolation schemes; Compound Job, initial MDCI parallelization
   Dimitrios Manganas     : Further ROCIS development; embedding schemes
   Dimitrios Pantazis     : SARC Basis sets
   Anastasios Papadopoulos: AUTO-CI, single reference methods and gradients
   Taras Petrenko         : DFT Hessian,TD-DFT gradient, ASA, ECA, R-Raman, ABS, FL, XAS/XES, NRVS
   Peter Pinski           : DLPNO-MP2, DLPNO-MP2 Gradient
   Christoph Reimann      : Effective Core Potentials
   Marius Retegan         : Local ZFS, SOC
   Christoph Riplinger    : Optimizer, TS searches, QM/MM, DLPNO-CCSD(T), (RO)-DLPNO pert. Triples
   Tobias Risthaus        : Range-separated hybrids, TD-DFT gradient, RPA, STAB
   Michael Roemelt        : Original ROCIS implementation
   Masaaki Saitow         : Open-shell DLPNO-CCSD energy and density
   Barbara Sandhoefer     : DKH picture change effects
   Avijit Sen             : IP-ROCIS
   Kantharuban Sivalingam : CASSCF convergence, NEVPT2, FIC-MRCI
   Bernardo de Souza      : ESD, SOC TD-DFT
   Georgi Stoychev        : AutoAux, RI-MP2 NMR, DLPNO-MP2 response
   Willem Van den Heuvel  : Paramagnetic NMR
   Boris Wezisla          : Elementary symmetry handling
   Frank Wennmohs         : Technical directorship


 We gratefully acknowledge several colleagues who have allowed us to
 interface, adapt or use parts of their codes:
   Stefan Grimme, W. Hujo, H. Kruse, P. Pracht,  : VdW corrections, initial TS optimization,
                  C. Bannwarth, S. Ehlert          DFT functionals, gCP, sTDA/sTD-DF
   Ed Valeev, F. Pavosevic, A. Kumar             : LibInt (2-el integral package), F12 methods
   Garnet Chan, S. Sharma, J. Yang, R. Olivares  : DMRG
   Ulf Ekstrom                                   : XCFun DFT Library
   Mihaly Kallay                                 : mrcc  (arbitrary order and MRCC methods)
   Jiri Pittner, Ondrej Demel                    : Mk-CCSD
   Frank Weinhold                                : gennbo (NPA and NBO analysis)
   Christopher J. Cramer and Donald G. Truhlar   : smd solvation model
   Lars Goerigk                                  : TD-DFT with DH, B97 family of functionals
   V. Asgeirsson, H. Jonsson                     : NEB implementation
   FAccTs GmbH                                   : IRC, NEB, NEB-TS, DLPNO-Multilevel, CI-OPT
                                                   MM, QMMM, 2- and 3-layer-ONIOM, Crystal-QMMM,
                                                   LR-CPCM, SF, NACMEs, symmetry and pop. for TD-DFT,
                                                   nearIR, NL-DFT gradient (VV10), updates on ESD,
                                                   ML-optimized integration grids
   S Lehtola, MJT Oliveira, MAL Marques          : LibXC Library
   Liviu Ungur et al                             : ANISO software


 Your calculation uses the libint2 library for the computation of 2-el integrals
 For citations please refer to: http://libint.valeyev.net

 Your ORCA version has been built with support for libXC version: 5.1.0
 For citations please refer to: https://tddft.org/programs/libxc/

 This ORCA versions uses:
   CBLAS   interface :  Fast vector & matrix operations
   LAPACKE interface :  Fast linear algebra routines
   SCALAPACK package :  Parallel linear algebra routines
   Shared memory     :  Shared parallel matrices
   BLAS/LAPACK       :  OpenBLAS 0.3.15  USE64BITINT DYNAMIC_ARCH NO_AFFINITY Prescott SINGLE_THREADED
        Core in use  :  Prescott
   Copyright (c) 2011-2014, The OpenBLAS Project


================================================================================

----- Orbital basis set information -----
Your calculation utilizes the basis: TZVP 

The basis set includes element-specific modifications.

Your calculation utilizes the basis: CP(PPP) 

----- AuxJ basis set information -----
Your calculation utilizes the auxiliary basis: def2/J
   F. Weigend, Phys. Chem. Chem. Phys. 8, 1057 (2006).

================================================================================
                                        WARNINGS
                       Please study these warnings very carefully!
================================================================================


WARNING: your system is open-shell and RHF/RKS was chosen
  ===> : WILL SWITCH to UHF/UKS


INFO   : the flag for use of the SHARK integral package has been found!

================================================================================
                                       INPUT FILE
================================================================================
NAME = input_30.inp
|  1> ! nofrozencore ReducedPop printbasis
|  2> ! B3LYP TZVP
|  3> 
|  4> %basis
|  5> newgto V "CP(PPP)" end
|  6> end
|  7> 
|  8> %pal
|  9> nprocs 4
| 10> end
| 11> 
| 12> % sym SymThresh 1e-2 end
| 13> * xyz -2 2 
| 14> V 0.785674976907722 0.5106965273254004 -0.6492544797202612
| 15> S -0.688788257311422 2.0746878849868615 -0.40220275220296275
| 16> S 1.655689942433064 0.6513223883540228 1.317535585405119
| 17> S -1.2949977384214038 -0.689365662803901 -2.0301507441242848
| 18> S 1.2202990767594608 -2.1867195875797054 -0.2199518932613485
| 19> O 1.7932768449128502 0.6626264280202813 -1.9269950316091884
| 20> C 2.597210118658752 -0.7404156729363811 1.8639046710840013
| 21> C 2.2508560833939364 -1.8898885791106574 1.2111142084690498
| 22> C -2.046778740634806 2.057262483085242 -1.53589629105625
| 23> C -2.2597685222517905 0.8193243990885304 -2.0763798218601957
| 24> S 3.727925925171786 -0.5977850975256488 3.3966265725235885
| 25> S 3.0542047424058825 -3.3209779627120826 1.6347136423921882
| 26> S -3.5406997568851066 0.6359907775215795 -3.1778783988746713
| 27> S -3.1983523488315533 3.579488398589252 -1.6836943835395555
| 28> C 2.384613095721605 -3.8293031449189887 3.2651226281656824
| 29> C -5.077557834224705 0.6616426506845878 -2.1787764529350877
| 30> C 2.7553813866418864 -1.6467083772719804 4.601161339443524
| 31> C -4.735060584823493 2.8753151613874883 -0.8849613768036789
| 32> C 2.986518870140587 -3.1560103531988544 4.495853180238635
| 33> H 1.6999832748832164 -1.402343625077475 4.435540876462182
| 34> H 3.035443910671767 -1.2936033836066252 5.604745253527246
| 35> H 2.5454226182264255 -3.629041799305024 5.388700321764543
| 36> H 4.062827623323679 -3.3571452604301473 4.527476878939358
| 37> H 2.5979681830022807 -4.908481567708566 3.3093321913828926
| 38> H 1.2928272118129398 -3.7046515826768576 3.2448688236497074
| 39> C -5.626780698174128 2.0350803479400326 -1.8021358027314023
| 40> H -5.300397441839786 3.737941987726079 -0.5003611589228938
| 41> H -4.389934309423527 2.284298097255161 -0.028411064598989497
| 42> H -5.8366277373165305 2.6021827107340787 -2.715544979077676
| 43> H -6.591254922485563 1.8837624875681258 -1.289971828782313
| 44> H -4.918343970262085 0.04326054429953362 -1.2849595250931065
| 45> H -5.812635080770253 0.1466416438486661 -2.8152693797983823
| 46> * 
| 47> 
| 48> % eprnmr
| 49> gtensor true
| 50> Nuclei = all H {aiso,adip,aorb,fgrad,rho}
| 51> Nuclei = all V {aiso,adip,aorb,fgrad,rho}
| 52> end
| 53> 
| 54>                          ****END OF INPUT****
================================================================================

------------------------------------------------------------------------------
                            SYMMETRY HANDLING SETUP
------------------------------------------------------------------------------

------------------
SYMMETRY DETECTION
------------------
The point group will now be determined using a tolerance of 1.0000e-02.
Splitting atom subsets according to nuclear charge, mass and basis set.
Splitting atom subsets according to distance from the molecule's center.
Identifying relative distance patterns of the atoms.
Splitting atom subsets according to atoms' relative distance patterns.
Bring atoms of each subset into input order.
The molecule is neither linear nor planar.
There is at least one atom subset not centered around the molecule's center.
The molecule does not have a center of inversion.
Analyzing the first atom subset for its symmetry.
The subset is an off-center atom pair.
Testing point group C2v.
Test failed.
Testing point group C2.
Test failed.
Testing point group Cs.
Test failed.
Testing point group Cs.
Test failed.
No testing is needed for point group C1.
This point group has been found:    C1
Largest non-degenerate subgroup:    C1


Mass-centered symmetry-perfected Cartesians (point group C1):

Atom          Symmetry-perfected Cartesians (x, y, z; au)
  0       1.486321768069    0.965639664613   -1.228368064691
  1      -1.300009939141    3.921155006413   -0.761507958771
  2       3.130411785325    1.231384029304    2.488326521313
  3      -2.445579838225   -1.302149218405   -3.837883823769
  4       2.307642287991   -4.131738061783   -0.417103747699
  5       3.390413350626    1.252745568481   -3.642947777966
  6       4.909627067953   -1.398619756689    3.520814461287
  7       4.255112795924   -3.570808747721    2.287219264109
  8      -3.866240045093    3.888225769046   -2.903878267000
  9      -4.268732401673    1.548861819541   -3.925244120114
 10       7.046370277558   -1.129087030839    6.417239094471
 11       5.773221751509   -6.275175755890    3.087706184708
 12      -6.689341631516    1.202411483639   -6.006774767575
 13      -6.042398787637    6.764815863306   -3.183176184909
 14       4.507876917715   -7.235771137236    6.168732654104
 15      -9.593582504392    1.250886498739   -4.118745709882
 16       5.208527446696   -3.111264765054    8.693479922737
 17      -8.946356501403    5.434121294158   -1.673789548055
 18       5.645313989792   -5.963432152942    8.494476342172
 19       3.214114053214   -2.649482306623    8.380502605529
 20       5.737768917487   -2.443993030507   10.589978672764
 21       4.811762874975   -6.857332038816   10.181712919110
 22       7.679242768850   -6.343522043581    8.554236472058
 23       4.911059601954   -9.275122805946    6.252276621085
 24       2.444700600246   -7.000213822433    6.130458510399
 25     -10.631463303745    3.846307608556   -3.406998030095
 26     -10.014688334575    7.064249751711   -0.947000465214
 27      -8.294162359277    4.317260902473   -0.055144038063
 28     -11.028016737738    4.917975764136   -5.133091221600
 29     -12.454055450919    3.560358293282   -2.439148383670
 30      -9.292711904780    0.082313671554   -2.429676502397
 31     -10.982677187640    0.277675637126   -5.321543027831


------------------
SYMMETRY REDUCTION
------------------
ORCA supports only abelian point groups.
It is now checked, if the determined point group is supported:
Point Group ( C1    ) is          ... supported

The point group is C1 - hence turning off symmetry
If this is a round-off problem, please increase the symmetry
        detection tolerance (%method SymThresh)

Storing the symmetry object:
Symmetry file                     ... input_30.sym.tmp
Writing symmetry information      ... done

                       ****************************
                       * Single Point Calculation *
                       ****************************

---------------------------------
CARTESIAN COORDINATES (ANGSTROEM)
---------------------------------
  V      0.786528    0.510995   -0.650024
  S     -0.687936    2.074986   -0.402973
  S      1.656543    0.651620    1.316766
  S     -1.294145   -0.689068   -2.030921
  S      1.221152   -2.186422   -0.220722
  O      1.794129    0.662924   -1.927765
  C      2.598063   -0.740118    1.863135
  C      2.251709   -1.889591    1.210344
  C     -2.045926    2.057560   -1.536666
  C     -2.258916    0.819622   -2.077150
  S      3.728779   -0.597487    3.395857
  S      3.055057   -3.320680    1.633944
  S     -3.539847    0.636289   -3.178648
  S     -3.197500    3.579786   -1.684464
  C      2.385466   -3.829005    3.264353
  C     -5.076705    0.661941   -2.179546
  C      2.756234   -1.646410    4.600391
  C     -4.734208    2.875613   -0.885731
  C      2.987371   -3.155712    4.495083
  H      1.700836   -1.402046    4.434771
  H      3.036297   -1.293305    5.603975
  H      2.546275   -3.628744    5.387930
  H      4.063680   -3.356847    4.526707
  H      2.598821   -4.908184    3.308562
  H      1.293680   -3.704354    3.244099
  C     -5.625928    2.035378   -1.802906
  H     -5.299545    3.738240   -0.501131
  H     -4.389082    2.284596   -0.029181
  H     -5.835775    2.602481   -2.716315
  H     -6.590402    1.884060   -1.290742
  H     -4.917491    0.043559   -1.285729
  H     -5.811782    0.146940   -2.816039

----------------------------
CARTESIAN COORDINATES (A.U.)
----------------------------
  NO LB      ZA    FRAG     MASS         X           Y           Z
   0 V    23.0000    0    50.940    1.486322    0.965640   -1.228368
   1 S    16.0000    0    32.060   -1.300010    3.921155   -0.761508
   2 S    16.0000    0    32.060    3.130412    1.231384    2.488327
   3 S    16.0000    0    32.060   -2.445580   -1.302149   -3.837884
   4 S    16.0000    0    32.060    2.307642   -4.131738   -0.417104
   5 O     8.0000    0    15.999    3.390413    1.252746   -3.642948
   6 C     6.0000    0    12.011    4.909627   -1.398620    3.520814
   7 C     6.0000    0    12.011    4.255113   -3.570809    2.287219
   8 C     6.0000    0    12.011   -3.866240    3.888226   -2.903878
   9 C     6.0000    0    12.011   -4.268732    1.548862   -3.925244
  10 S    16.0000    0    32.060    7.046370   -1.129087    6.417239
  11 S    16.0000    0    32.060    5.773222   -6.275176    3.087706
  12 S    16.0000    0    32.060   -6.689342    1.202411   -6.006775
  13 S    16.0000    0    32.060   -6.042399    6.764816   -3.183176
  14 C     6.0000    0    12.011    4.507877   -7.235771    6.168733
  15 C     6.0000    0    12.011   -9.593583    1.250886   -4.118746
  16 C     6.0000    0    12.011    5.208527   -3.111265    8.693480
  17 C     6.0000    0    12.011   -8.946357    5.434121   -1.673790
  18 C     6.0000    0    12.011    5.645314   -5.963432    8.494476
  19 H     1.0000    0     1.008    3.214114   -2.649482    8.380503
  20 H     1.0000    0     1.008    5.737769   -2.443993   10.589979
  21 H     1.0000    0     1.008    4.811763   -6.857332   10.181713
  22 H     1.0000    0     1.008    7.679243   -6.343522    8.554236
  23 H     1.0000    0     1.008    4.911060   -9.275123    6.252277
  24 H     1.0000    0     1.008    2.444701   -7.000214    6.130459
  25 C     6.0000    0    12.011  -10.631463    3.846308   -3.406998
  26 H     1.0000    0     1.008  -10.014688    7.064250   -0.947000
  27 H     1.0000    0     1.008   -8.294162    4.317261   -0.055144
  28 H     1.0000    0     1.008  -11.028017    4.917976   -5.133091
  29 H     1.0000    0     1.008  -12.454055    3.560358   -2.439148
  30 H     1.0000    0     1.008   -9.292712    0.082314   -2.429677
  31 H     1.0000    0     1.008  -10.982677    0.277676   -5.321543

--------------------------------
INTERNAL COORDINATES (ANGSTROEM)
--------------------------------
 V      0   0   0     0.000000000000     0.00000000     0.00000000
 S      1   0   0     2.163595468652     0.00000000     0.00000000
 S      1   2   0     2.155218047740    97.10758302     0.00000000
 S      1   2   3     2.770599700703    81.84970349   141.49632952
 S      1   2   3     2.765728207157   142.59687301    85.89387037
 O      1   2   3     1.634308764302   116.24634265   234.78328239
 C      3   1   2     1.766893955864   116.48109891   161.44728820
 C      7   3   1     1.366522765216   112.32062637   337.05205047
 C      2   1   3     1.769096616204   116.28446319   199.14145011
 C      9   2   1     1.367471313759   112.44281573    23.06829575
 S      7   3   1     1.909999513951   120.31683838   166.42136771
 S      8   7   3     1.694940226738   118.08003792   180.63468885
 S     10   9   2     1.699321970617   118.11670457   179.51628488
 S      9   2   1     1.914454958746   120.22353685   193.61185848
 C     12   8   7     1.834388433529   106.44483029    74.07186600
 C     13  10   9     1.833247246517   106.09014639   285.61520165
 C     11   7   3     1.870023243422    99.62085163   109.17201297
 C     14   9   2     1.869573899745    99.32037204   250.87526469
 C     15  12   8     1.526535763245   116.77105756   277.48436048
 H     17  11   7     1.095905764278   106.16653343   319.61270317
 H     17  11   7     1.100135821853   105.97205185   204.76090535
 H     19  15  12     1.102497469652   107.81363971   184.87933010
 H     19  15  12     1.095397572302   109.25135508   300.72371231
 H     15  12   8     1.100954561716   103.68479466   157.76021485
 H     15  12   8     1.099065350591   108.34852770    43.50176919
 C     16  13  10     1.526379717473   116.66133464    82.62947505
 H     18  14   9     1.100748895532   106.03676369   155.11399407
 H     18  14   9     1.096399449747   106.14467713    40.26393253
 H     26  16  13     1.095425576275   109.20830448    59.03387543
 H     26  16  13     1.102460684306   107.81328246   174.84728649
 H     16  13  10     1.098478121981   108.30449835   316.61885795
 H     16  13  10     1.100312610751   103.78305846   202.35865538

---------------------------
INTERNAL COORDINATES (A.U.)
---------------------------
 V      0   0   0     0.000000000000     0.00000000     0.00000000
 S      1   0   0     4.088602900346     0.00000000     0.00000000
 S      1   2   0     4.072771869113    97.10758302     0.00000000
 S      1   2   3     5.235674661054    81.84970349   141.49632952
 S      1   2   3     5.226468872387   142.59687301    85.89387037
 O      1   2   3     3.088395982798   116.24634265   234.78328239
 C      3   1   2     3.338945684264   116.48109891   161.44728820
 C      7   3   1     2.582353782027   112.32062637   337.05205047
 C      2   1   3     3.343108109073   116.28446319   199.14145011
 C      9   2   1     2.584146278997   112.44281573    23.06829575
 S      7   3   1     3.609375997290   120.31683838   166.42136771
 S      8   7   3     3.202972841900   118.08003792   180.63468885
 S     10   9   2     3.211253137821   118.11670457   179.51628488
 S      9   2   1     3.617795567758   120.22353685   193.61185848
 C     12   8   7     3.466491762603   106.44483029    74.07186600
 C     13  10   9     3.464335231682   106.09014639   285.61520165
 C     11   7   3     3.533831794134    99.62085163   109.17201297
 C     14   9   2     3.532982657644    99.32037204   250.87526469
 C     15  12   8     2.884734526170   116.77105756   277.48436048
 H     17  11   7     2.070961763070   106.16653343   319.61270317
 H     17  11   7     2.078955413419   105.97205185   204.76090535
 H     19  15  12     2.083418280983   107.81363971   184.87933010
 H     19  15  12     2.070001419413   109.25135508   300.72371231
 H     15  12   8     2.080502607534   103.68479466   157.76021485
 H     15  12   8     2.076932515899   108.34852770    43.50176919
 C     16  13  10     2.884439642396   116.66133464    82.62947505
 H     18  14   9     2.080113954771   106.03676369   155.11399407
 H     18  14   9     2.071894693403   106.14467713    40.26393253
 H     26  16  13     2.070054339252   109.20830448    59.03387543
 H     26  16  13     2.083348766753   107.81328246   174.84728649
 H     16  13  10     2.075822814649   108.30449835   316.61885795
 H     16  13  10     2.079289496020   103.78305846   202.35865538

---------------------
BASIS SET INFORMATION
---------------------
There are 5 groups of distinct atoms

 Group   1 Type V   : 17s11p5d1f contracted to 17s7p3d1f pattern {11111111111111111/3311111/311/1}
 Group   2 Type S   : 14s9p1d contracted to 5s4p1d pattern {73211/6111/1}
 Group   3 Type O   : 11s6p1d contracted to 5s3p1d pattern {62111/411/1}
 Group   4 Type C   : 11s6p1d contracted to 5s3p1d pattern {62111/411/1}
 Group   5 Type H   : 5s1p contracted to 3s1p pattern {311/1}

Atom   0V    basis set group =>   1
Atom   1S    basis set group =>   2
Atom   2S    basis set group =>   2
Atom   3S    basis set group =>   2
Atom   4S    basis set group =>   2
Atom   5O    basis set group =>   3
Atom   6C    basis set group =>   4
Atom   7C    basis set group =>   4
Atom   8C    basis set group =>   4
Atom   9C    basis set group =>   4
Atom  10S    basis set group =>   2
Atom  11S    basis set group =>   2
Atom  12S    basis set group =>   2
Atom  13S    basis set group =>   2
Atom  14C    basis set group =>   4
Atom  15C    basis set group =>   4
Atom  16C    basis set group =>   4
Atom  17C    basis set group =>   4
Atom  18C    basis set group =>   4
Atom  19H    basis set group =>   5
Atom  20H    basis set group =>   5
Atom  21H    basis set group =>   5
Atom  22H    basis set group =>   5
Atom  23H    basis set group =>   5
Atom  24H    basis set group =>   5
Atom  25C    basis set group =>   4
Atom  26H    basis set group =>   5
Atom  27H    basis set group =>   5
Atom  28H    basis set group =>   5
Atom  29H    basis set group =>   5
Atom  30H    basis set group =>   5
Atom  31H    basis set group =>   5

-------------------------
BASIS SET IN INPUT FORMAT
-------------------------

 # Basis set for element : H 
 NewGTO H 
 S 3 
   1      34.0613410000      0.0254393168
   2       5.1235746000      0.1900859340
   3       1.1646626000      0.8524411390
 S 1 
   1       0.3272304100      1.0000000000
 S 1 
   1       0.1030724100      1.0000000000
 P 1 
   1       0.8000000000      1.0000000000
  end;

 # Basis set for element : C 
 NewGTO C 
 S 6 
   1   13575.3496820000      0.0006064601
   2    2035.2333680000      0.0046978985
   3     463.2256235900      0.0243324735
   4     131.2001959800      0.0973999560
   5      42.8530158900      0.3019558443
   6      15.5841857700      0.6623361013
 S 2 
   1       6.2067138500      0.6559530795
   2       2.5764896500      0.3758563390
 S 1 
   1       0.5769633900      1.0000000000
 S 1 
   1       0.2297283100      1.0000000000
 S 1 
   1       0.0951644400      1.0000000000
 P 4 
   1      34.6972322400      0.0113272290
   2       7.9582622800      0.0761696612
   3       2.3780826900      0.3019225154
   4       0.8143320800      0.7278502776
 P 1 
   1       0.2888754700      1.0000000000
 P 1 
   1       0.1005682400      1.0000000000
 D 1 
   1       0.8000000000      1.0000000000
  end;

 # Basis set for element : O 
 NewGTO O 
 S 6 
   1   27032.3826310000      0.0005722654
   2    4052.3871392000      0.0044353333
   3     922.3272271000      0.0230201034
   4     261.2407098900      0.0928224938
   5      85.3546413500      0.2937849971
   6      31.0350352400      0.6740160462
 S 2 
   1      12.2608607300      0.6383993750
   2       4.9987076000      0.3953458663
 S 1 
   1       1.1703108200      1.0000000000
 S 1 
   1       0.4647474100      1.0000000000
 S 1 
   1       0.1850453600      1.0000000000
 P 4 
   1      63.2749548000      0.0120183316
   2      14.6270493800      0.0830054304
   3       4.4501223500      0.3199174388
   4       1.5275799600      0.7071554258
 P 1 
   1       0.5293511800      1.0000000000
 P 1 
   1       0.1747842100      1.0000000000
 D 1 
   1       1.2000000000      1.0000000000
  end;

 # Basis set for element : S 
 NewGTO S 
 S 7 
   1   60700.9281040000      0.0005238013
   2    9102.6106854000      0.0040506304
   3    2071.4166009000      0.0208270003
   4     586.0247682100      0.0814968475
   5     190.5539502100      0.2374911358
   6      67.6303842600      0.4472617145
   7      25.1273069100      0.3489191913
 S 3 
   1     112.5746301000      0.1004556993
   2      34.7955542200      0.4339117282
   3       6.5115556200     -1.2084330582
 S 2 
   1       3.2399032300      0.6749812922
   2       1.5477160900      0.3470879597
 S 1 
   1       0.4054103000      1.0000000000
 S 1 
   1       0.1455065100      1.0000000000
 P 6 
   1     564.3671602700      0.0025564845
   2     133.4262437900      0.0202874255
   3      42.4682711900      0.0927670112
   4      15.6165275800      0.2650208365
   5       6.1093988500      0.4486298663
   6       2.4404160200      0.3596369916
 P 1 
   1       0.8388220100      1.0000000000
 P 1 
   1       0.3128874700      1.0000000000
 P 1 
   1       0.1077010900      1.0000000000
 D 1 
   1       0.5500000000      1.0000000000
  end;

 # Basis set for element : V 
 NewGTO V 
 S 1 
   1  4239814.9912500000      1.0000000000
 S 1 
   1  1695925.9965000001      1.0000000000
 S 1 
   1  678370.3986000001      1.0000000000
 S 1 
   1  271348.1594400000      1.0000000000
 S 1 
   1   40672.0050780000      1.0000000000
 S 1 
   1    9257.0761385000      1.0000000000
 S 1 
   1    2622.7328773000      1.0000000000
 S 1 
   1     858.5948018500      1.0000000000
 S 1 
   1     314.1941865000      1.0000000000
 S 1 
   1     124.4786212700      1.0000000000
 S 1 
   1      50.4693993090      1.0000000000
 S 1 
   1      12.5138469110      1.0000000000
 S 1 
   1       5.3447758082      1.0000000000
 S 1 
   1       1.5755631295      1.0000000000
 S 1 
   1       0.6306903307      1.0000000000
 S 1 
   1       0.0879544416      1.0000000000
 S 1 
   1       0.0342969197      1.0000000000
 P 3 
   1    1450.0319327000     -0.0222847647
   2     343.7504988400     -0.1817959329
   3     110.8252170800     -0.8607412073
 P 3 
   1      41.8224645460     -0.2522537814
   2      17.0880737100     -0.4620379520
   3       7.2613218939     -0.3990010670
 P 1 
   1       2.9458145262      1.0000000000
 P 1 
   1       1.1650209680      1.0000000000
 P 1 
   1       0.4339937839      1.0000000000
 D 3 
   1      27.3603358640      0.0575501019
   2       7.4542765527      0.3023798347
   3       2.4632270217      0.7724212088
 D 1 
   1       0.8249954244      1.0000000000
 D 1 
   1       0.2526297057      1.0000000000
 P 1 
   1       0.1112480000      1.0000000000
 P 1 
   1       0.0363780000      1.0000000000
 F 1 
   1       1.8000000000      1.0000000000
  end;

---------------------------------
AUXILIARY/J BASIS SET INFORMATION
---------------------------------
There are 5 groups of distinct atoms

 Group   1 Type V   : 19s5p5d3f3g contracted to 8s5p5d2f3g pattern {121111111/11111/11111/21/111}
 Group   2 Type S   : 14s5p5d2f1g contracted to 8s4p3d1f1g pattern {71111111/2111/311/2/1}
 Group   3 Type O   : 12s5p4d2f1g contracted to 6s4p3d1f1g pattern {711111/2111/211/2/1}
 Group   4 Type C   : 12s5p4d2f1g contracted to 6s4p3d1f1g pattern {711111/2111/211/2/1}
 Group   5 Type H   : 5s2p1d contracted to 3s1p1d pattern {311/2/1}

Atom   0V    basis set group =>   1
Atom   1S    basis set group =>   2
Atom   2S    basis set group =>   2
Atom   3S    basis set group =>   2
Atom   4S    basis set group =>   2
Atom   5O    basis set group =>   3
Atom   6C    basis set group =>   4
Atom   7C    basis set group =>   4
Atom   8C    basis set group =>   4
Atom   9C    basis set group =>   4
Atom  10S    basis set group =>   2
Atom  11S    basis set group =>   2
Atom  12S    basis set group =>   2
Atom  13S    basis set group =>   2
Atom  14C    basis set group =>   4
Atom  15C    basis set group =>   4
Atom  16C    basis set group =>   4
Atom  17C    basis set group =>   4
Atom  18C    basis set group =>   4
Atom  19H    basis set group =>   5
Atom  20H    basis set group =>   5
Atom  21H    basis set group =>   5
Atom  22H    basis set group =>   5
Atom  23H    basis set group =>   5
Atom  24H    basis set group =>   5
Atom  25C    basis set group =>   4
Atom  26H    basis set group =>   5
Atom  27H    basis set group =>   5
Atom  28H    basis set group =>   5
Atom  29H    basis set group =>   5
Atom  30H    basis set group =>   5
Atom  31H    basis set group =>   5

-------------------------------------
AUXILIARY/J BASIS SET IN INPUT FORMAT
-------------------------------------

 # Auxiliary/J basis set for element : H 
 NewAuxJGTO H 
 S 3 
   1      15.6752927000      0.1007184237
   2       3.6063578000      0.3404257499
   3       1.2080016000      0.6491996172
 S 1 
   1       0.4726794000      1.0000000000
 S 1 
   1       0.2018100000      1.0000000000
 P 2 
   1       2.0281365000      0.5596620919
   2       0.5358730000      0.5596620919
 D 1 
   1       2.2165124000      1.0000000000
  end;

 # Auxiliary/J basis set for element : C 
 NewAuxJGTO C 
 S 7 
   1    1861.0916331000      0.0134602335
   2     642.9939764000      0.0299160374
   3     235.1105725000      0.1008649584
   4      90.7028894000      0.2370970548
   5      36.7794552000      0.3924037254
   6      15.6046273000      0.3195862154
   7       6.8907294000      0.0530104441
 S 1 
   1       3.1478850000     -1.0000000000
 S 1 
   1       1.4777287000      1.0000000000
 S 1 
   1       0.7076466000      1.0000000000
 S 1 
   1       0.3430122000      1.0000000000
 S 1 
   1       0.1669453000      1.0000000000
 P 2 
   1      13.5472892000     -0.6769313712
   2       5.4669419000     -0.3779500978
 P 1 
   1       2.1751721000      1.0000000000
 P 1 
   1       0.8582194000      1.0000000000
 P 1 
   1       0.3376720000      1.0000000000
 D 2 
   1       5.9287253000     -0.3533329857
   2       1.9809209000     -0.7456525731
 D 1 
   1       0.8055417000     -1.0000000000
 D 1 
   1       0.3531244000     -1.0000000000
 F 2 
   1       1.6755626000      0.6311076882
   2       0.5997536000      0.4968166032
 G 1 
   1       1.0024600000     -1.0000000000
  end;

 # Auxiliary/J basis set for element : O 
 NewAuxJGTO O 
 S 7 
   1    2876.8216605000      0.0168151159
   2    1004.7443032000      0.0340137548
   3     369.7579954000      0.1194951309
   4     142.9442404000      0.2664627624
   5      57.8366425000      0.4202764046
   6      24.3864983000      0.2765077335
   7      10.6622662000      0.0057008815
 S 1 
   1       4.8070437000     -1.0000000000
 S 1 
   1       2.2210770000      1.0000000000
 S 1 
   1       1.0447795000      1.0000000000
 S 1 
   1       0.4968425000      1.0000000000
 S 1 
   1       0.2371384000      1.0000000000
 P 2 
   1      64.2613382000     -0.2731534179
   2      16.3006076000     -0.8168011598
 P 1 
   1       4.3550542000      1.0000000000
 P 1 
   1       1.2019554000      1.0000000000
 P 1 
   1       0.3354196000      1.0000000000
 D 2 
   1       9.2146611000     -0.4661230638
   2       2.8435251000     -0.6600908911
 D 1 
   1       0.9955759000     -1.0000000000
 D 1 
   1       0.3649441000     -1.0000000000
 F 2 
   1       2.6420115000      0.5931563945
   2       0.7345613000      0.5931563945
 G 1 
   1       1.3931000000     -1.0000000000
  end;

 # Auxiliary/J basis set for element : S 
 NewAuxJGTO S 
 S 7 
   1    7399.0303145000      0.0295137551
   2    2710.1675859000      0.0559686311
   3    1034.3279062000      0.1764696370
   4     410.4645411000      0.3577969368
   5     168.9762502000      0.4299293578
   6      71.9687889000      0.1259148089
   7      31.6172683000     -0.0646025788
 S 1 
   1      14.2796836000      1.0000000000
 S 1 
   1       6.6060948000      1.0000000000
 S 1 
   1       3.1181477000      1.0000000000
 S 1 
   1       1.4954039000     -1.0000000000
 S 1 
   1       0.7254779000      1.0000000000
 S 1 
   1       0.3544216000      1.0000000000
 S 1 
   1       0.1735525000      1.0000000000
 P 2 
   1      12.6998799000      1.4059102813
   2       4.4295784000     -1.2124994202
 P 1 
   1       1.5232889000      1.0000000000
 P 1 
   1       0.5194667000     -1.0000000000
 P 1 
   1       0.1766547000     -1.0000000000
 D 3 
   1      16.8546461000      1.0295742104
   2       5.0810461000     -0.7461553923
   3       1.5102323000      0.8357028005
 D 1 
   1       0.4451331000      1.0000000000
 D 1 
   1       0.1308362000      1.0000000000
 F 2 
   1       1.0809860000      0.5572698934
   2       0.4161474000      0.5572698934
 G 1 
   1       0.6707100000     -1.0000000000
  end;

 # Auxiliary/J basis set for element : V 
 NewAuxJGTO V 
 S 12 
   1   11942.0842430000      0.0459866720
   2    2430.7110193000      0.1744615821
   3     841.0764301000      0.2900402792
   4     494.7508273000      0.1411212903
   5     291.0298903000      0.2660697186
   6     171.1940483000      0.0446365706
   7      59.2366916000     -0.0408204801
   8      34.8451117000      0.1394665381
   9      20.4971240000      0.2164746715
  10      12.0571314000      0.0864266611
  11       7.0924300000     -0.0568501658
  12       4.1720176000     -0.0126212852
 S 1 
   1       2.4541279000      1.0000000000
 S 1 
   1       1.4436046000      1.0000000000
 S 1 
   1       0.8491792000      1.0000000000
 S 1 
   1       0.2938336000      1.0000000000
 S 1 
   1       0.1728433000      1.0000000000
 S 1 
   1       0.1016725000      1.0000000000
 S 1 
   1       0.0598074000      1.0000000000
 P 1 
   1      16.7130979000     -1.0000000000
 P 1 
   1       4.7454037000     -1.0000000000
 P 1 
   1       1.3889998000      1.0000000000
 P 1 
   1       0.4142440000     -1.0000000000
 P 1 
   1       0.1243234000      1.0000000000
 D 1 
   1       7.7143225000      1.0000000000
 D 1 
   1       3.1170731000      1.0000000000
 D 1 
   1       1.2767950000     -1.0000000000
 D 1 
   1       0.5273386000      1.0000000000
 D 1 
   1       0.2184050000      1.0000000000
 F 2 
   1       3.1309344000     -1.0825667766
   2       1.0419780000      0.1809223232
 F 1 
   1       0.3559044000      1.0000000000
 G 1 
   1       8.7130110000      1.0000000000
 G 1 
   1       2.7493872000      1.0000000000
 G 1 
   1       0.8775089000      1.0000000000
  end;



           ************************************************************
           *        Program running with 4 parallel MPI-processes     *
           *              working on a common directory               *
           ************************************************************
------------------------------------------------------------------------------
                           ORCA GTO INTEGRAL CALCULATION
                           -- RI-GTO INTEGRALS CHOSEN --
------------------------------------------------------------------------------
------------------------------------------------------------------------------
                   ___                                                        
                  /   \      - P O W E R E D   B Y -                         
                 /     \                                                     
                 |  |  |   _    _      __       _____    __    __             
                 |  |  |  | |  | |    /  \     |  _  \  |  |  /  |          
                  \  \/   | |  | |   /    \    | | | |  |  | /  /          
                 / \  \   | |__| |  /  /\  \   | |_| |  |  |/  /          
                |  |  |   |  __  | /  /__\  \  |    /   |      \           
                |  |  |   | |  | | |   __   |  |    \   |  |\   \          
                \     /   | |  | | |  |  |  |  | |\  \  |  | \   \       
                 \___/    |_|  |_| |__|  |__|  |_| \__\ |__|  \__/        
                                                                              
                      - O R C A' S   B I G   F R I E N D -                    
                                      &                                       
                       - I N T E G R A L  F E E D E R -                       
                                                                              
 v1 FN, 2020, v2 2021                                                         
------------------------------------------------------------------------------


Reading SHARK input file input_30.SHARKINP.tmp ... ok
----------------------
SHARK INTEGRAL PACKAGE
----------------------

Number of atoms                             ...     32
Number of basis functions                   ...    517
Number of shells                            ...    255
Maximum angular momentum                    ...      3
Integral batch strategy                     ... SHARK/LIBINT Hybrid
RI-J (if used) integral strategy            ... SPLIT-RIJ (Revised 2003 algorithm where possible)
Printlevel                                  ...      1
Contraction scheme used                     ... SEGMENTED contraction
Coulomb Range Separation                    ... NOT USED
Exchange Range Separation                   ... NOT USED
Finite Nucleus Model                        ... NOT USED
Auxiliary Coulomb fitting basis             ... AVAILABLE
   # of basis functions in Aux-J            ...   1168
   # of shells in Aux-J                     ...    384
   Maximum angular momentum in Aux-J        ...      4
Auxiliary J/K fitting basis                 ... NOT available
Auxiliary Correlation fitting basis         ... NOT available
Auxiliary 'external' fitting basis          ... NOT available
Integral threshold                          ...     1.000000e-10
Primitive cut-off                           ...     1.000000e-11
Primitive pair pre-selection threshold      ...     1.000000e-11

Calculating pre-screening integrals         ... done (  0.1 sec) Dimension = 255
Organizing shell pair data                  ... done (  0.1 sec)
Shell pair information
Total number of shell pairs                 ...     32640
Shell pairs after pre-screening             ...     17820
Total number of primitive shell pairs       ...    123863
Primitive shell pairs kept                  ...     41702
          la=0 lb=0:   5395 shell pairs
          la=1 lb=0:   7046 shell pairs
          la=1 lb=1:   2293 shell pairs
          la=2 lb=0:   1677 shell pairs
          la=2 lb=1:   1116 shell pairs
          la=2 lb=2:    156 shell pairs
          la=3 lb=0:     72 shell pairs
          la=3 lb=1:     52 shell pairs
          la=3 lb=2:     12 shell pairs
          la=3 lb=3:      1 shell pairs

Calculating one electron integrals          ... done (  0.0 sec)
Calculating RI/J V-Matrix + Cholesky decomp.... done (  0.1 sec)
Calculating Nuclear repulsion               ... done (  0.0 sec) ENN=   3212.836758273860 Eh

SHARK setup successfully completed in   0.6 seconds

Maximum memory used throughout the entire GTOINT-calculation: 31.9 MB


           ************************************************************
           *        Program running with 4 parallel MPI-processes     *
           *              working on a common directory               *
           ************************************************************
-------------------------------------------------------------------------------
                                 ORCA SCF
-------------------------------------------------------------------------------

------------
SCF SETTINGS
------------
Hamiltonian:
 Density Functional     Method          .... DFT(GTOs)
 Exchange Functional    Exchange        .... B88
   X-Alpha parameter    XAlpha          ....  0.666667
   Becke's b parameter  XBeta           ....  0.004200
 Correlation Functional Correlation     .... LYP
 LDA part of GGA corr.  LDAOpt          .... VWN-5
 Gradients option       PostSCFGGA      .... off
 Hybrid DFT is turned on
   Fraction HF Exchange ScalHFX         ....  0.200000
   Scaling of DF-GGA-X  ScalDFX         ....  0.720000
   Scaling of DF-GGA-C  ScalDFC         ....  0.810000
   Scaling of DF-LDA-C  ScalLDAC        ....  1.000000
   Perturbative correction              ....  0.000000
   Density functional embedding theory  .... OFF
   NL short-range parameter             ....  4.800000
 RI-approximation to the Coulomb term is turned on
   Number of AuxJ basis functions       .... 1168
   RIJ-COSX (HFX calculated with COS-X)).... on


General Settings:
 Integral files         IntName         .... input_30
 Hartree-Fock type      HFTyp           .... UHF
 Total Charge           Charge          ....   -2
 Multiplicity           Mult            ....    2
 Number of Electrons    NEL             ....  233
 Basis Dimension        Dim             ....  517
 Nuclear Repulsion      ENuc            ....   3212.8367582739 Eh

Convergence Acceleration:
 DIIS                   CNVDIIS         .... on
   Start iteration      DIISMaxIt       ....    12
   Startup error        DIISStart       ....  0.200000
   # of expansion vecs  DIISMaxEq       ....     5
   Bias factor          DIISBfac        ....   1.050
   Max. coefficient     DIISMaxC        ....  10.000
 Trust-Rad. Augm. Hess. CNVTRAH         .... auto
   Auto Start mean grad. ratio tolernc. ....  1.125000
   Auto Start start iteration           ....    20
   Auto Start num. interpolation iter.  ....    10
   Max. Number of Micro iterations      ....    16
   Max. Number of Macro iterations      .... Maxiter - #DIIS iter
   Number of Davidson start vectors     ....     2
   Converg. threshold I  (grad. norm)   ....   5.000e-05
   Converg. threshold II (energy diff.) ....   1.000e-06
   Grad. Scal. Fac. for Micro threshold ....   0.100
   Minimum threshold for Micro iter.    ....   0.010
   NR start threshold (gradient norm)   ....   0.001
   Initial trust radius                 ....   0.400
   Minimum AH scaling param. (alpha)    ....   1.000
   Maximum AH scaling param. (alpha)    .... 1000.000
   Orbital update algorithm             .... Taylor
   White noise on init. David. guess    .... on
   Maximum white noise                  ....   0.010
   Quad. conv. algorithm                .... NR
 SOSCF                  CNVSOSCF        .... off
 Level Shifting         CNVShift        .... on
   Level shift para.    LevelShift      ....    0.2500
   Turn off err/grad.   ShiftErr        ....    0.0010
 Zerner damping         CNVZerner       .... off
 Static damping         CNVDamp         .... on
   Fraction old density DampFac         ....    0.7000
   Max. Damping (<1)    DampMax         ....    0.9800
   Min. Damping (>=0)   DampMin         ....    0.0000
   Turn off err/grad.   DampErr         ....    0.1000
 Fernandez-Rico         CNVRico         .... off

SCF Procedure:
 Maximum # iterations   MaxIter         ....   125
 SCF integral mode      SCFMode         .... Direct
   Integral package                     .... SHARK and LIBINT hybrid scheme
 Reset frequency        DirectResetFreq ....    20
 Integral Threshold     Thresh          ....  1.000e-10 Eh
 Primitive CutOff       TCut            ....  1.000e-11 Eh

Convergence Tolerance:
 Convergence Check Mode ConvCheckMode   .... Total+1el-Energy
 Convergence forced     ConvForced      .... 0
 Energy Change          TolE            ....  1.000e-06 Eh
 1-El. energy change                    ....  1.000e-03 Eh
 DIIS Error             TolErr          ....  1.000e-06


Diagonalization of the overlap matrix:
Smallest eigenvalue                        ... 2.057e-04
Time for diagonalization                   ...    0.092 sec
Threshold for overlap eigenvalues          ... 1.000e-08
Number of eigenvalues below threshold      ... 0
Time for construction of square roots      ...    0.103 sec
Total time needed                          ...    0.196 sec

Time for model grid setup =    0.354 sec

------------------------------
INITIAL GUESS: MODEL POTENTIAL
------------------------------
Loading Hartree-Fock densities                     ... done
Calculating cut-offs                               ... done
Initializing the effective Hamiltonian             ... done
Setting up the integral package (SHARK)            ... done
Starting the Coulomb interaction                   ... done (   0.4 sec)
Reading the grid                                   ... done
Mapping shells                                     ... done
Starting the XC term evaluation                    ... done (   0.2 sec)
  promolecular density results
     # of electrons  =    230.999603810
     EX              =   -307.559975107
     EC              =     -9.027731008
     EX+EC           =   -316.587706115
Transforming the Hamiltonian                       ... done (   0.1 sec)
Diagonalizing the Hamiltonian                      ... done (   0.1 sec)
Back transforming the eigenvectors                 ... done (   0.0 sec)
Now organizing SCF variables                       ... done
                      ------------------
                      INITIAL GUESS DONE (   1.2 sec)
                      ------------------
-------------------
DFT GRID GENERATION
-------------------

General Integration Accuracy     IntAcc      ... 4.388
Radial Grid Type                 RadialGrid  ... OptM3 with GC (2021)
Angular Grid (max. ang.)         AngularGrid ... 4 (Lebedev-302)
Angular grid pruning method      GridPruning ... 4 (adaptive)
Weight generation scheme         WeightScheme... Becke
Basis function cutoff            BFCut       ... 1.0000e-10
Integration weight cutoff        WCut        ... 1.0000e-14
Angular grids for H and He will be reduced by one unit
Partially contracted basis set               ... off
Rotationally invariant grid construction     ... off

Total number of grid points                  ...   184133
Total number of batches                      ...     2893
Average number of points per batch           ...       63
Average number of grid points per atom       ...     5754
Time for grid setup =    1.585 sec

--------------------
COSX GRID GENERATION
--------------------

GRIDX 1
-------
General Integration Accuracy     IntAcc      ... 3.816
Radial Grid Type                 RadialGrid  ... OptM3 with GC (2021)
Angular Grid (max. ang.)         AngularGrid ... 1 (Lebedev-50)
Angular grid pruning method      GridPruning ... 4 (adaptive)
Weight generation scheme         WeightScheme... Becke
Basis function cutoff            BFCut       ... 1.0000e-10
Integration weight cutoff        WCut        ... 1.0000e-14
Angular grids for H and He will be reduced by one unit
Partially contracted basis set               ... on
Rotationally invariant grid construction     ... off

Total number of grid points                  ...    22798
Total number of batches                      ...      374
Average number of points per batch           ...       60
Average number of grid points per atom       ...      712
UseSFitting                                  ... on

GRIDX 2
-------
General Integration Accuracy     IntAcc      ... 4.020
Radial Grid Type                 RadialGrid  ... OptM3 with GC (2021)
Angular Grid (max. ang.)         AngularGrid ... 2 (Lebedev-110)
Angular grid pruning method      GridPruning ... 4 (adaptive)
Weight generation scheme         WeightScheme... Becke
Basis function cutoff            BFCut       ... 1.0000e-10
Integration weight cutoff        WCut        ... 1.0000e-14
Angular grids for H and He will be reduced by one unit
Partially contracted basis set               ... on
Rotationally invariant grid construction     ... off

Total number of grid points                  ...    49141
Total number of batches                      ...      783
Average number of points per batch           ...       62
Average number of grid points per atom       ...     1536
UseSFitting                                  ... on

GRIDX 3
-------
General Integration Accuracy     IntAcc      ... 4.338
Radial Grid Type                 RadialGrid  ... OptM3 with GC (2021)
Angular Grid (max. ang.)         AngularGrid ... 3 (Lebedev-194)
Angular grid pruning method      GridPruning ... 4 (adaptive)
Weight generation scheme         WeightScheme... Becke
Basis function cutoff            BFCut       ... 1.0000e-10
Integration weight cutoff        WCut        ... 1.0000e-14
Angular grids for H and He will be reduced by one unit
Partially contracted basis set               ... on
Rotationally invariant grid construction     ... off

Total number of grid points                  ...   112185
Total number of batches                      ...     1768
Average number of points per batch           ...       63
Average number of grid points per atom       ...     3506
UseSFitting                                  ... on

Time for X-Grid setup             =    1.802 sec

--------------
SCF ITERATIONS
--------------
ITER       Energy         Delta-E        Max-DP      RMS-DP      [F,P]     Damp
               ***  Starting incremental Fock matrix formation  ***
  0  -4591.8841788727   0.000000000000 0.08914371  0.00116811  0.2457808 0.7000
  1  -4592.2152658854  -0.331087012721 0.11241451  0.00104155  0.1560672 0.7000
                               ***Turning on DIIS***
  2  -4592.3468479122  -0.131582026808 0.07108640  0.00056221  0.1094938 0.7000
  3  -4592.4252654622  -0.078417550062 0.12811452  0.00106190  0.0775137 0.0000
  4  -4592.6103754409  -0.185109978663 0.05655061  0.00045184  0.0315299 0.0000
  5  -4592.6219544642  -0.011579023280 0.01524199  0.00013604  0.0128238 0.0000
  6  -4592.6240757962  -0.002121332061 0.00577215  0.00006076  0.0034893 0.0000
  7  -4592.6245358977  -0.000460101434 0.00320455  0.00003732  0.0024348 0.0000
  8  -4592.6247477697  -0.000211872036 0.00211918  0.00002940  0.0013494 0.0000
  9  -4592.6249000458  -0.000152276123 0.00125371  0.00002287  0.0011758 0.0000
 10  -4592.6250001854  -0.000100139589 0.00120331  0.00002025  0.0010121 0.0000
 11  -4592.6250728874  -0.000072701968 0.00292240  0.00003974  0.0008450 0.0000
               *** Restarting incremental Fock matrix formation ***
                                   *** Resetting DIIS ***
 12  -4592.6251625186  -0.000089631168 0.00226030  0.00002559  0.0007801 0.0000
 13  -4592.6250300997   0.000132418892 0.00084039  0.00000841  0.0035655 0.0000
 14  -4592.6251550402  -0.000124940527 0.00062857  0.00000524  0.0015452 0.0000
 15  -4592.6251813898  -0.000026349629 0.00120164  0.00000979  0.0007001 0.0000
 16  -4592.6251919454  -0.000010555603 0.00052873  0.00000764  0.0002625 0.0000
 17  -4592.6251960660  -0.000004120618 0.00033654  0.00000353  0.0004789 0.0000
 18  -4592.6251976177  -0.000001551674 0.00036215  0.00000423  0.0002511 0.0000
 19  -4592.6251993503  -0.000001732579 0.00026222  0.00000323  0.0001518 0.0000
 20  -4592.6252003212  -0.000000970945 0.00008640  0.00000142  0.0000384 0.0000
 21  -4592.6252002422   0.000000079033 0.00004723  0.00000081  0.0000428 0.0000
 22  -4592.6252004734  -0.000000231229 0.00006168  0.00000054  0.0000395 0.0000
                 **** Energy Check signals convergence ****

               *****************************************************
               *                     SUCCESS                       *
               *           SCF CONVERGED AFTER  23 CYCLES          *
               *****************************************************

Old exchange energy                            =    -61.756462529 Eh
New exchange energy                            =    -61.756466850 Eh
Exchange energy change after final integration =     -0.000004321 Eh
Total energy after final integration           =  -4592.625204749 Eh
Final COS-X integration done in                =    25.020 sec

----------------
TOTAL SCF ENERGY
----------------

Total Energy       :        -4592.62520475 Eh         -124971.68526 eV

Components:
Nuclear Repulsion  :         3212.83675827 Eh           87425.73283 eV
Electronic Energy  :        -7805.46196302 Eh         -212397.41809 eV
One Electron Energy:       -12789.33733319 Eh         -348015.56161 eV
Two Electron Energy:         4983.87537017 Eh          135618.14352 eV
Max COSX asymmetry :            0.00000158 Eh               0.00004 eV

Virial components:
Potential Energy   :        -9173.95401048 Eh         -249635.97987 eV
Kinetic Energy     :         4581.32880573 Eh          124664.29461 eV
Virial Ratio       :            2.00246575


DFT components:
N(Alpha)           :      116.999912136967 electrons
N(Beta)            :      115.999912013169 electrons
N(Total)           :      232.999824150136 electrons
E(X)               :     -245.496684161290 Eh       
E(C)               :      -10.626233397544 Eh       
E(XC)              :     -256.122917558833 Eh       
DFET-embed. en.    :        0.000000000000 Eh       

---------------
SCF CONVERGENCE
---------------

  Last Energy change         ...    4.5270e-08  Tolerance :   1.0000e-06
  Last MAX-Density change    ...    0.0000e+00  Tolerance :   1.0000e-05
  Last RMS-Density change    ...    0.0000e+00  Tolerance :   1.0000e-06
  Last DIIS Error            ...    2.8685e-05  Tolerance :   1.0000e-06

             **** THE GBW FILE WAS UPDATED (input_30.gbw) ****
             **** DENSITY input_30.scfp WAS UPDATED ****
             **** ENERGY FILE WAS UPDATED (input_30.en.tmp) ****
----------------------
UHF SPIN CONTAMINATION
----------------------

Warning: in a DFT calculation there is little theoretical justification to 
         calculate <S**2> as in Hartree-Fock theory. We will do it anyways
         but you should keep in mind that the values have only limited relevance

Expectation value of <S**2>     :     0.768203
Ideal value S*(S+1) for S=0.5   :     0.750000
Deviation                       :     0.018203

             **** THE GBW FILE WAS UPDATED (input_30.gbw) ****
             **** DENSITY input_30.scfp WAS UPDATED ****
----------------
ORBITAL ENERGIES
----------------
                 SPIN UP ORBITALS
  NO   OCC          E(Eh)            E(eV) 
   0   1.0000    -196.634002     -5350.6832 
   1   1.0000     -88.692559     -2413.4472 
   2   1.0000     -88.692327     -2413.4409 
   3   1.0000     -88.662022     -2412.6163 
   4   1.0000     -88.661878     -2412.6124 
   5   1.0000     -88.612893     -2411.2794 
   6   1.0000     -88.612573     -2411.2707 
   7   1.0000     -88.611136     -2411.2316 
   8   1.0000     -88.610850     -2411.2238 
   9   1.0000     -22.009374      -598.9055 
  10   1.0000     -18.844930      -512.7966 
  11   1.0000     -18.515783      -503.8401 
  12   1.0000     -18.510887      -503.7068 
  13   1.0000     -18.510493      -503.6961 
  14   1.0000     -10.022406      -272.7235 
  15   1.0000     -10.022151      -272.7166 
  16   1.0000     -10.011961      -272.4393 
  17   1.0000     -10.011449      -272.4254 
  18   1.0000     -10.005123      -272.2532 
  19   1.0000     -10.004722      -272.2423 
  20   1.0000      -9.999274      -272.0941 
  21   1.0000      -9.999054      -272.0881 
  22   1.0000      -9.989734      -271.8345 
  23   1.0000      -9.989707      -271.8337 
  24   1.0000      -7.743616      -210.7145 
  25   1.0000      -7.743357      -210.7075 
  26   1.0000      -7.718863      -210.0409 
  27   1.0000      -7.718610      -210.0341 
  28   1.0000      -7.670808      -208.7333 
  29   1.0000      -7.670318      -208.7200 
  30   1.0000      -7.663793      -208.5424 
  31   1.0000      -7.663401      -208.5317 
  32   1.0000      -5.708918      -155.3476 
  33   1.0000      -5.708656      -155.3404 
  34   1.0000      -5.705506      -155.2547 
  35   1.0000      -5.705266      -155.2482 
  36   1.0000      -5.698289      -155.0583 
  37   1.0000      -5.698020      -155.0510 
  38   1.0000      -5.684109      -154.6725 
  39   1.0000      -5.683854      -154.6655 
  40   1.0000      -5.679599      -154.5497 
  41   1.0000      -5.679380      -154.5438 
  42   1.0000      -5.673527      -154.3845 
  43   1.0000      -5.673274      -154.3776 
  44   1.0000      -5.635133      -153.3398 
  45   1.0000      -5.634646      -153.3265 
  46   1.0000      -5.629361      -153.1827 
  47   1.0000      -5.629003      -153.1730 
  48   1.0000      -5.628860      -153.1691 
  49   1.0000      -5.628634      -153.1629 
  50   1.0000      -5.628579      -153.1614 
  51   1.0000      -5.628124      -153.1490 
  52   1.0000      -5.622402      -152.9933 
  53   1.0000      -5.622013      -152.9827 
  54   1.0000      -5.621503      -152.9689 
  55   1.0000      -5.621120      -152.9585 
  56   1.0000      -2.404738       -65.4362 
  57   1.0000      -1.443840       -39.2889 
  58   1.0000      -1.435683       -39.0669 
  59   1.0000      -1.435344       -39.0577 
  60   1.0000      -0.645668       -17.5695 
  61   1.0000      -0.645007       -17.5515 
  62   1.0000      -0.605562       -16.4782 
  63   1.0000      -0.600466       -16.3395 
  64   1.0000      -0.599263       -16.3068 
  65   1.0000      -0.572604       -15.5814 
  66   1.0000      -0.572096       -15.5675 
  67   1.0000      -0.499933       -13.6039 
  68   1.0000      -0.497406       -13.5351 
  69   1.0000      -0.481921       -13.1137 
  70   1.0000      -0.480738       -13.0815 
  71   1.0000      -0.421681       -11.4745 
  72   1.0000      -0.418968       -11.4007 
  73   1.0000      -0.412800       -11.2329 
  74   1.0000      -0.407640       -11.0925 
  75   1.0000      -0.375950       -10.2301 
  76   1.0000      -0.372602       -10.1390 
  77   1.0000      -0.292459        -7.9582 
  78   1.0000      -0.291775        -7.9396 
  79   1.0000      -0.279221        -7.5980 
  80   1.0000      -0.278600        -7.5811 
  81   1.0000      -0.260147        -7.0790 
  82   1.0000      -0.255504        -6.9526 
  83   1.0000      -0.242416        -6.5965 
  84   1.0000      -0.240123        -6.5341 
  85   1.0000      -0.195477        -5.3192 
  86   1.0000      -0.192836        -5.2473 
  87   1.0000      -0.192413        -5.2358 
  88   1.0000      -0.190758        -5.1908 
  89   1.0000      -0.185020        -5.0347 
  90   1.0000      -0.184296        -5.0150 
  91   1.0000      -0.182454        -4.9648 
  92   1.0000      -0.157581        -4.2880 
  93   1.0000      -0.150900        -4.1062 
  94   1.0000      -0.146344        -3.9822 
  95   1.0000      -0.144636        -3.9358 
  96   1.0000      -0.142891        -3.8883 
  97   1.0000      -0.099785        -2.7153 
  98   1.0000      -0.092557        -2.5186 
  99   1.0000      -0.089350        -2.4313 
 100   1.0000      -0.085754        -2.3335 
 101   1.0000      -0.074978        -2.0403 
 102   1.0000      -0.062715        -1.7066 
 103   1.0000      -0.056254        -1.5307 
 104   1.0000      -0.053743        -1.4624 
 105   1.0000      -0.041251        -1.1225 
 106   1.0000      -0.039229        -1.0675 
 107   1.0000      -0.035647        -0.9700 
 108   1.0000      -0.031845        -0.8665 
 109   1.0000      -0.018041        -0.4909 
 110   1.0000      -0.010579        -0.2879 
 111   1.0000       0.000721         0.0196 
 112   1.0000       0.009376         0.2551 
 113   1.0000       0.025928         0.7055 
 114   1.0000       0.031514         0.8575 
 115   1.0000       0.046618         1.2685 
 116   1.0000       0.056618         1.5407 
 117   0.0000       0.181134         4.9289 
 118   0.0000       0.182859         4.9759 
 119   0.0000       0.191893         5.2217 
 120   0.0000       0.192274         5.2320 
 121   0.0000       0.197872         5.3844 
 122   0.0000       0.202435         5.5085 
 123   0.0000       0.207115         5.6359 
 124   0.0000       0.211748         5.7620 
 125   0.0000       0.229390         6.2420 
 126   0.0000       0.231962         6.3120 
 127   0.0000       0.234004         6.3676 
 128   0.0000       0.240654         6.5485 
 129   0.0000       0.243089         6.6148 
 130   0.0000       0.244202         6.6451 
 131   0.0000       0.250913         6.8277 
 132   0.0000       0.254746         6.9320 
 133   0.0000       0.256608         6.9827 
 134   0.0000       0.259664         7.0658 
 135   0.0000       0.262311         7.1379 
 136   0.0000       0.269429         7.3315 
 137   0.0000       0.271958         7.4003 
 138   0.0000       0.280362         7.6290 
 139   0.0000       0.282329         7.6826 
 140   0.0000       0.285035         7.7562 
 141   0.0000       0.287259         7.8167 
 142   0.0000       0.295959         8.0534 
 143   0.0000       0.303412         8.2562 
 144   0.0000       0.305666         8.3176 
 145   0.0000       0.311571         8.4783 
 146   0.0000       0.315340         8.5808 
 147   0.0000       0.319041         8.6816 
 148   0.0000       0.328694         8.9442 
 149   0.0000       0.331912         9.0318 
 150   0.0000       0.347400         9.4532 
 151   0.0000       0.355795         9.6817 
 152   0.0000       0.374275        10.1845 
 153   0.0000       0.374660        10.1950 
 154   0.0000       0.388859        10.5814 
 155   0.0000       0.391601        10.6560 
 156   0.0000       0.393909        10.7188 
 157   0.0000       0.397228        10.8091 
 158   0.0000       0.398938        10.8557 
 159   0.0000       0.411005        11.1840 
 160   0.0000       0.422584        11.4991 
 161   0.0000       0.425650        11.5825 
 162   0.0000       0.426697        11.6110 
 163   0.0000       0.430707        11.7201 
 164   0.0000       0.441572        12.0158 
 165   0.0000       0.447620        12.1804 
 166   0.0000       0.452516        12.3136 
 167   0.0000       0.453514        12.3407 
 168   0.0000       0.460888        12.5414 
 169   0.0000       0.461649        12.5621 
 170   0.0000       0.471084        12.8188 
 171   0.0000       0.473852        12.8942 
 172   0.0000       0.480746        13.0818 
 173   0.0000       0.481971        13.1151 
 174   0.0000       0.484607        13.1868 
 175   0.0000       0.487982        13.2787 
 176   0.0000       0.498074        13.5533 
 177   0.0000       0.499058        13.5801 
 178   0.0000       0.501551        13.6479 
 179   0.0000       0.510450        13.8900 
 180   0.0000       0.514687        14.0053 
 181   0.0000       0.518827        14.1180 
 182   0.0000       0.528233        14.3739 
 183   0.0000       0.532082        14.4787 
 184   0.0000       0.537659        14.6304 
 185   0.0000       0.545052        14.8316 
 186   0.0000       0.547536        14.8992 
 187   0.0000       0.552114        15.0238 
 188   0.0000       0.554363        15.0850 
 189   0.0000       0.557454        15.1691 
 190   0.0000       0.563096        15.3226 
 191   0.0000       0.568430        15.4678 
 192   0.0000       0.571666        15.5558 
 193   0.0000       0.576656        15.6916 
 194   0.0000       0.579095        15.7580 
 195   0.0000       0.581903        15.8344 
 196   0.0000       0.585339        15.9279 
 197   0.0000       0.588866        16.0239 
 198   0.0000       0.590095        16.0573 
 199   0.0000       0.593188        16.1415 
 200   0.0000       0.597048        16.2465 
 201   0.0000       0.597418        16.2566 
 202   0.0000       0.602040        16.3823 
 203   0.0000       0.604451        16.4479 
 204   0.0000       0.612603        16.6698 
 205   0.0000       0.616708        16.7815 
 206   0.0000       0.624338        16.9891 
 207   0.0000       0.628843        17.1117 
 208   0.0000       0.630362        17.1530 
 209   0.0000       0.635880        17.3032 
 210   0.0000       0.637895        17.3580 
 211   0.0000       0.642937        17.4952 
 212   0.0000       0.643307        17.5053 
 213   0.0000       0.646102        17.5813 
 214   0.0000       0.649626        17.6772 
 215   0.0000       0.661661        18.0047 
 216   0.0000       0.662703        18.0331 
 217   0.0000       0.667536        18.1646 
 218   0.0000       0.678209        18.4550 
 219   0.0000       0.679376        18.4868 
 220   0.0000       0.680705        18.5229 
 221   0.0000       0.684207        18.6182 
 222   0.0000       0.694444        18.8968 
 223   0.0000       0.699828        19.0433 
 224   0.0000       0.714952        19.4548 
 225   0.0000       0.721801        19.6412 
 226   0.0000       0.737406        20.0658 
 227   0.0000       0.740967        20.1627 
 228   0.0000       0.758201        20.6317 
 229   0.0000       0.761050        20.7092 
 230   0.0000       0.774176        21.0664 
 231   0.0000       0.777776        21.1644 
 232   0.0000       0.781145        21.2560 
 233   0.0000       0.805348        21.9146 
 234   0.0000       0.813082        22.1251 
 235   0.0000       0.838443        22.8152 
 236   0.0000       0.848785        23.0966 
 237   0.0000       0.863337        23.4926 
 238   0.0000       0.868257        23.6265 
 239   0.0000       0.877231        23.8707 
 240   0.0000       0.895238        24.3607 
 241   0.0000       0.901195        24.5228 
 242   0.0000       0.904497        24.6126 
 243   0.0000       0.912188        24.8219 
 244   0.0000       0.921824        25.0841 
 245   0.0000       0.932327        25.3699 
 246   0.0000       0.935871        25.4663 
 247   0.0000       0.937227        25.5032 
 248   0.0000       0.948952        25.8223 
 249   0.0000       0.960806        26.1449 
 250   0.0000       0.973160        26.4810 
 251   0.0000       0.975073        26.5331 
 252   0.0000       0.990198        26.9447 
 253   0.0000       0.996947        27.1283 
 254   0.0000       0.999232        27.1905 
 255   0.0000       1.002428        27.2775 
 256   0.0000       1.009550        27.4713 
 257   0.0000       1.011772        27.5317 
 258   0.0000       1.024703        27.8836 
 259   0.0000       1.043359        28.3912 
 260   0.0000       1.045803        28.4577 
 261   0.0000       1.049007        28.5449 
 262   0.0000       1.051669        28.6174 
 263   0.0000       1.055861        28.7314 
 264   0.0000       1.058469        28.8024 
 265   0.0000       1.073628        29.2149 
 266   0.0000       1.084744        29.5174 
 267   0.0000       1.096862        29.8471 
 268   0.0000       1.100830        29.9551 
 269   0.0000       1.104656        30.0592 
 270   0.0000       1.113374        30.2964 
 271   0.0000       1.121806        30.5259 
 272   0.0000       1.130378        30.7591 
 273   0.0000       1.146029        31.1850 
 274   0.0000       1.154051        31.4033 
 275   0.0000       1.170951        31.8632 
 276   0.0000       1.179263        32.0894 
 277   0.0000       1.188663        32.3452 
 278   0.0000       1.189436        32.3662 
 279   0.0000       1.201064        32.6826 
 280   0.0000       1.205342        32.7990 
 281   0.0000       1.226831        33.3838 
 282   0.0000       1.228936        33.4411 
 283   0.0000       1.250974        34.0407 
 284   0.0000       1.259810        34.2812 
 285   0.0000       1.289737        35.0955 
 286   0.0000       1.299258        35.3546 
 287   0.0000       1.305849        35.5340 
 288   0.0000       1.322300        35.9816 
 289   0.0000       1.352640        36.8072 
 290   0.0000       1.353307        36.8254 
 291   0.0000       1.357436        36.9377 
 292   0.0000       1.373849        37.3843 
 293   0.0000       1.392127        37.8817 
 294   0.0000       1.400226        38.1021 
 295   0.0000       1.405295        38.2400 
 296   0.0000       1.439380        39.1675 
 297   0.0000       1.441488        39.2249 
 298   0.0000       1.453488        39.5514 
 299   0.0000       1.471561        40.0432 
 300   0.0000       1.472471        40.0680 
 301   0.0000       1.480841        40.2957 
 302   0.0000       1.482862        40.3507 
 303   0.0000       1.485896        40.4333 
 304   0.0000       1.486847        40.4592 
 305   0.0000       1.499437        40.8018 
 306   0.0000       1.529879        41.6301 
 307   0.0000       1.530161        41.6378 
 308   0.0000       1.547809        42.1180 
 309   0.0000       1.549634        42.1677 
 310   0.0000       1.565325        42.5946 
 311   0.0000       1.566871        42.6367 
 312   0.0000       1.597004        43.4567 
 313   0.0000       1.598957        43.5098 
 314   0.0000       1.617617        44.0176 
 315   0.0000       1.624332        44.2003 
 316   0.0000       1.627257        44.2799 
 317   0.0000       1.647343        44.8265 
 318   0.0000       1.657180        45.0942 
 319   0.0000       1.658602        45.1329 
 320   0.0000       1.663224        45.2586 
 321   0.0000       1.675146        45.5830 
 322   0.0000       1.687092        45.9081 
 323   0.0000       1.706218        46.4286 
 324   0.0000       1.710445        46.5436 
 325   0.0000       1.720478        46.8166 
 326   0.0000       1.736628        47.2561 
 327   0.0000       1.742381        47.4126 
 328   0.0000       1.744156        47.4609 
 329   0.0000       1.750139        47.6237 
 330   0.0000       1.760783        47.9133 
 331   0.0000       1.770347        48.1736 
 332   0.0000       1.777118        48.3578 
 333   0.0000       1.784244        48.5517 
 334   0.0000       1.785614        48.5890 
 335   0.0000       1.807272        49.1784 
 336   0.0000       1.819142        49.5014 
 337   0.0000       1.823481        49.6195 
 338   0.0000       1.824399        49.6444 
 339   0.0000       1.842465        50.1360 
 340   0.0000       1.845470        50.2178 
 341   0.0000       1.846939        50.2578 
 342   0.0000       1.850686        50.3597 
 343   0.0000       1.855712        50.4965 
 344   0.0000       1.856122        50.5077 
 345   0.0000       1.866117        50.7796 
 346   0.0000       1.867689        50.8224 
 347   0.0000       1.917226        52.1704 
 348   0.0000       1.923493        52.3409 
 349   0.0000       1.934267        52.6341 
 350   0.0000       1.937508        52.7223 
 351   0.0000       1.950832        53.0848 
 352   0.0000       1.954885        53.1951 
 353   0.0000       1.961878        53.3854 
 354   0.0000       1.963256        53.4229 
 355   0.0000       1.966548        53.5125 
 356   0.0000       1.967611        53.5414 
 357   0.0000       2.001011        54.4503 
 358   0.0000       2.001639        54.4674 
 359   0.0000       2.041968        55.5648 
 360   0.0000       2.048531        55.7434 
 361   0.0000       2.059506        56.0420 
 362   0.0000       2.061292        56.0906 
 363   0.0000       2.078166        56.5498 
 364   0.0000       2.085233        56.7421 
 365   0.0000       2.095916        57.0328 
 366   0.0000       2.096582        57.0509 
 367   0.0000       2.118115        57.6368 
 368   0.0000       2.119052        57.6623 
 369   0.0000       2.134306        58.0774 
 370   0.0000       2.138152        58.1821 
 371   0.0000       2.157191        58.7002 
 372   0.0000       2.163595        58.8744 
 373   0.0000       2.184369        59.4397 
 374   0.0000       2.192350        59.6569 
 375   0.0000       2.195643        59.7465 
 376   0.0000       2.204971        60.0003 
 377   0.0000       2.209822        60.1323 
 378   0.0000       2.212044        60.1928 
 379   0.0000       2.215727        60.2930 
 380   0.0000       2.222227        60.4699 
 381   0.0000       2.230724        60.7011 
 382   0.0000       2.240527        60.9678 
 383   0.0000       2.244417        61.0737 
 384   0.0000       2.255615        61.3784 
 385   0.0000       2.273040        61.8526 
 386   0.0000       2.280437        62.0538 
 387   0.0000       2.296105        62.4802 
 388   0.0000       2.297074        62.5066 
 389   0.0000       2.331018        63.4302 
 390   0.0000       2.335630        63.5557 
 391   0.0000       2.357742        64.1574 
 392   0.0000       2.364602        64.3441 
 393   0.0000       2.367018        64.4098 
 394   0.0000       2.399043        65.2813 
 395   0.0000       2.401054        65.3360 
 396   0.0000       2.404430        65.4279 
 397   0.0000       2.411610        65.6232 
 398   0.0000       2.414510        65.7022 
 399   0.0000       2.439024        66.3692 
 400   0.0000       2.446669        66.5773 
 401   0.0000       2.452938        66.7478 
 402   0.0000       2.459756        66.9334 
 403   0.0000       2.504837        68.1601 
 404   0.0000       2.510398        68.3114 
 405   0.0000       2.531210        68.8777 
 406   0.0000       2.536216        69.0139 
 407   0.0000       2.544363        69.2356 
 408   0.0000       2.547291        69.3153 
 409   0.0000       2.555978        69.5517 
 410   0.0000       2.557626        69.5965 
 411   0.0000       2.559779        69.6551 
 412   0.0000       2.597308        70.6763 
 413   0.0000       2.607186        70.9451 
 414   0.0000       2.621256        71.3280 
 415   0.0000       2.621925        71.3462 
 416   0.0000       2.633062        71.6493 
 417   0.0000       2.651237        72.1438 
 418   0.0000       2.660801        72.4041 
 419   0.0000       2.665825        72.5408 
 420   0.0000       2.683900        73.0326 
 421   0.0000       2.684618        73.0522 
 422   0.0000       2.700969        73.4971 
 423   0.0000       2.707343        73.6705 
 424   0.0000       2.757840        75.0446 
 425   0.0000       2.760274        75.1109 
 426   0.0000       2.773305        75.4655 
 427   0.0000       2.782204        75.7076 
 428   0.0000       2.783773        75.7503 
 429   0.0000       2.806753        76.3756 
 430   0.0000       2.822296        76.7986 
 431   0.0000       2.826396        76.9101 
 432   0.0000       2.853320        77.6428 
 433   0.0000       2.854755        77.6818 
 434   0.0000       2.861371        77.8619 
 435   0.0000       2.862145        77.8829 
 436   0.0000       2.898255        78.8655 
 437   0.0000       2.902418        78.9788 
 438   0.0000       2.907883        79.1275 
 439   0.0000       2.930227        79.7355 
 440   0.0000       2.937590        79.9359 
 441   0.0000       2.950286        80.2814 
 442   0.0000       2.954523        80.3967 
 443   0.0000       2.970122        80.8211 
 444   0.0000       2.972711        80.8916 
 445   0.0000       3.032239        82.5114 
 446   0.0000       3.034865        82.5829 
 447   0.0000       3.037324        82.6498 
 448   0.0000       3.049094        82.9701 
 449   0.0000       3.054617        83.1204 
 450   0.0000       3.056455        83.1704 
 451   0.0000       3.181532        86.5739 
 452   0.0000       3.183088        86.6162 
 453   0.0000       3.327284        90.5400 
 454   0.0000       3.327576        90.5479 
 455   0.0000       3.349827        91.1534 
 456   0.0000       3.409222        92.7697 
 457   0.0000       3.428256        93.2876 
 458   0.0000       3.437687        93.5442 
 459   0.0000       3.473411        94.5163 
 460   0.0000       3.473438        94.5171 
 461   0.0000       3.513206        95.5992 
 462   0.0000       3.513597        95.6098 
 463   0.0000       3.540842        96.3512 
 464   0.0000       3.541612        96.3722 
 465   0.0000       3.569650        97.1351 
 466   0.0000       3.570497        97.1582 
 467   0.0000       3.585497        97.5663 
 468   0.0000       3.586114        97.5831 
 469   0.0000       3.812929       103.7551 
 470   0.0000       3.833965       104.3275 
 471   0.0000       3.863704       105.1367 
 472   0.0000       3.965703       107.9123 
 473   0.0000       4.215303       114.7042 
 474   0.0000       4.551652       123.8567 
 475   0.0000       4.559803       124.0785 
 476   0.0000       4.592264       124.9619 
 477   0.0000       4.603873       125.2778 
 478   0.0000       4.615804       125.6024 
 479   0.0000       4.638345       126.2158 
 480   0.0000       5.094493       138.6282 
 481   0.0000       6.998902       190.4498 
 482   0.0000       7.106670       193.3823 
 483   0.0000       7.139200       194.2675 
 484   0.0000      18.762567       510.5554 
 485   0.0000      18.805825       511.7325 
 486   0.0000      18.930559       515.1267 
 487   0.0000      18.968887       516.1697 
 488   0.0000      19.111088       520.0391 
 489   0.0000      19.144280       520.9423 
[...]
Average number of points per batch           ...       59
Average number of grid points per atom       ...      437

Memory available               ... 849.8 MB
Memory needed per perturbation ...  34.9 MB
Perturbations treated per batch... 3
Number of batches              ... 1
     CP-SCF ITERATION   0:   4.4149e-02 (   5.5 sec   0/  3 done)
     CP-SCF ITERATION   1:   1.6656e-03 (   5.6 sec   0/  3 done)
     CP-SCF ITERATION   2:   5.1897e-04 (   5.6 sec   3/  3 done)
                    *** THE CP-SCF HAS CONVERGED ***

Forming final perturbed densities           ... done
Transforming perturbed density to AO basis  ... done

 Raw HFC matrix (all values in MHz): 
 -----------------------------------
                 0.6737               0.2068               0.1776
                 0.2112              -0.4354               0.0136
                 0.1794               0.0136              -0.4615

 A(FC)          -0.0739              -0.0739              -0.0739
 A(SD)          -0.3903              -0.4300               0.8202
 A(ORB+DIA)      0.0032               0.0033              -0.0082    A(PC) =  -0.0006
 A(ORB)          0.0032               0.0034              -0.0084    A(PC) =  -0.0006
 A(DIA)         -0.0000              -0.0000               0.0002    A(PC) =   0.0001
             ----------           ----------           ----------
 A(Tot)         -0.4609              -0.5005               0.7382    A(iso)=   -0.0744
 Orientation: 
  X          -0.0629927           -0.2181279            0.9738851
  Y           0.8255661            0.5369206            0.1736571
  Z          -0.5607785            0.8149457            0.1462569

Notes:  (1) The A matrix conforms to the "SAI" spin Hamiltonian convention.
        (2) Tensor is right-handed.

 Raw EFG matrix (all values in a.u.**-3):
 -----------------------------------
            -0.1324      -0.0347       0.0471
            -0.0347      -0.0071      -0.1908
             0.0471      -0.1908       0.1395

 V(El)       0.6154       0.4446      -1.0600
 V(Nuc)     -0.7526      -0.5864       1.3389
         ----------   ----------   ----------
 V(Tot)     -0.1372      -0.1417       0.2789 
 Orientation: 
  X      -0.4606220    0.8763685   -0.1407328
  Y       0.6921235    0.4539022    0.5611933
  Z       0.5556910    0.1610935   -0.8156325

Note: Tensor is right-handed


 Quadrupole tensor eigenvalues (in MHz;Q= 0.0029 I=  1.0)
  e**2qQ            =     0.187306 MHz 
  e**2qQ/(4I*(2I-1))=     0.046826 MHz 
  eta               =     0.016245
  NOTE: the diagonal representation of the SH term I*Q*I = e**2qQ/(4I(2I-1))*[-(1-eta),-(1+eta),2]

 RHO(0)=      0.438583647 a.u.**-3

 -----------------------------------------------------------
 Nucleus  31H : A:ISTP=    1 I=  0.5 P=533.5514 MHz/au**3
                Q:ISTP=    2 I=  1.0 Q=  0.0029 barn     
 -----------------------------------------------------------
 Solving for nuclear perturbation:
Forming RHS of the CP-SCF equations         ... 
Calc. nucleus orbit integrals (SHARK)       ... done

------------------------------------------------------------------------------
                           ORCA CP-SCF CALCULATION
------------------------------------------------------------------------------

Input orbitals are from        ... input_30.gbw
Input Perturbation             ... input_30.pin.tmp
Wavefunction output            ... input_30.pout.tmp
Perturbation mode              ... Imaginary perturbation
Solver                         ... POPLE
Max. number of iterations      ... 64
Convergence tolerance          ... 1.000e-03
Integral handling              ... Direct
DFT GridXC                     ... 1
COSX GridX                     ... 1
COSX IntAccX                   ... 3.067
COSX Algorithm                 ... Auto
Number of perturbations        ... 3
Number of operators            ... 2
Orbital ranges used for CP-SCF:
 Operator 0:  Orbitals   0...116  to 117...516
 Operator 1:  Orbitals   0...115  to 116...516
Variables per perturbation     ... 93316
DFT calculation                         ... on
XC functional terms                     ... off
Hybrid DFT                              ... on
   Exchange mixing (SCF)                ...  0.200
   Exchange mixing (CP-SCF)             ...  0.200
   GGA exch. scaling(SCF)               ...  0.720
   GGA exch. scaling (CP-SCF)           ...  0.720
   GGA corr. scaling (SCF)              ...  0.810
   GGA corr. scaling (CP-SCF)           ...  0.810

CP-SCF GRID
-----------

General Integration Accuracy     IntAcc      ... 3.467
Radial Grid Type                 RadialGrid  ... OptM3 with GC (2021)
Angular Grid (max. ang.)         AngularGrid ... 1 (Lebedev-50)
Angular grid pruning method      GridPruning ... 4 (adaptive)
Weight generation scheme         WeightScheme... Becke
Basis function cutoff            BFCut       ... 1.0000e-10
Integration weight cutoff        WCut        ... 1.0000e-14
Angular grids for H and He will be reduced by one unit
Partially contracted basis set               ... off
Rotationally invariant grid construction     ... off

Total number of grid points                  ...    31416
Total number of batches                      ...      508
Average number of points per batch           ...       61
Average number of grid points per atom       ...      982

CP-SCF GRIDX
------------

General Integration Accuracy     IntAcc      ... 3.067
Radial Grid Type                 RadialGrid  ... OptM3 with GC (2021)
Angular Grid (max. ang.)         AngularGrid ... 1 (Lebedev-50)
Angular grid pruning method      GridPruning ... 4 (adaptive)
Weight generation scheme         WeightScheme... Becke
Basis function cutoff            BFCut       ... 1.0000e-10
Integration weight cutoff        WCut        ... 1.0000e-14
Angular grids for H and He will be reduced by one unit
Partially contracted basis set               ... on
Rotationally invariant grid construction     ... off

Total number of grid points                  ...    13971
Total number of batches                      ...      236
Average number of points per batch           ...       59
Average number of grid points per atom       ...      437

Memory available               ... 846.6 MB
Memory needed per perturbation ...  34.9 MB
Perturbations treated per batch... 3
Number of batches              ... 1
     CP-SCF ITERATION   0:   4.2266e-02 (   5.4 sec   0/  3 done)
     CP-SCF ITERATION   1:   1.3933e-03 (   5.6 sec   0/  3 done)
     CP-SCF ITERATION   2:   3.6007e-04 (   5.6 sec   3/  3 done)
                    *** THE CP-SCF HAS CONVERGED ***

Forming final perturbed densities           ... done
Transforming perturbed density to AO basis  ... done

 Raw HFC matrix (all values in MHz): 
 -----------------------------------
                 0.3577               0.0786               0.2122
                 0.0792              -0.2541               0.0357
                 0.2129               0.0346              -0.1935

 A(FC)          -0.0300              -0.0300              -0.0300
 A(SD)          -0.2297              -0.2453               0.4750
 A(ORB+DIA)      0.0022               0.0022              -0.0042    A(PC) =   0.0000
 A(ORB)          0.0022               0.0022              -0.0043    A(PC) =   0.0000
 A(DIA)         -0.0000              -0.0000               0.0001    A(PC) =   0.0000
             ----------           ----------           ----------
 A(Tot)         -0.2576              -0.2731               0.4408    A(iso)=   -0.0300
 Orientation: 
  X          -0.3045276           -0.1585886            0.9392085
  Y           0.7261440           -0.6767817            0.1211670
  Z           0.6164234            0.7188993            0.3212569

Notes:  (1) The A matrix conforms to the "SAI" spin Hamiltonian convention.
        (2) Tensor is right-handed.

 Raw EFG matrix (all values in a.u.**-3):
 -----------------------------------
             0.0508       0.1306       0.1621
             0.1306      -0.0514       0.1162
             0.1621       0.1162       0.0006

 V(El)       0.5167       0.8260      -1.3427
 V(Nuc)     -0.6537      -0.9705       1.6241
         ----------   ----------   ----------
 V(Tot)     -0.1370      -0.1445       0.2815 
 Orientation: 
  X      -0.7411783    0.0433014    0.6699102
  Y       0.3732495   -0.8028677    0.4648529
  Z       0.5579780    0.5945826    0.5789059

Note: Tensor is right-handed


 Quadrupole tensor eigenvalues (in MHz;Q= 0.0029 I=  1.0)
  e**2qQ            =     0.188993 MHz 
  e**2qQ/(4I*(2I-1))=     0.047248 MHz 
  eta               =     0.026596
  NOTE: the diagonal representation of the SH term I*Q*I = e**2qQ/(4I(2I-1))*[-(1-eta),-(1+eta),2]

 RHO(0)=      0.441942066 a.u.**-3

 -----------------------------------------------------------
 Nucleus   0V : A:ISTP=   51 I=  3.5 P=140.5173 MHz/au**3
                Q:ISTP=   51 I=  3.5 Q= -0.0430 barn     
 -----------------------------------------------------------
 Solving for nuclear perturbation:
Forming RHS of the CP-SCF equations         ... 
Calc. nucleus orbit integrals (SHARK)       ... done

------------------------------------------------------------------------------
                           ORCA CP-SCF CALCULATION
------------------------------------------------------------------------------

Input orbitals are from        ... input_30.gbw
Input Perturbation             ... input_30.pin.tmp
Wavefunction output            ... input_30.pout.tmp
Perturbation mode              ... Imaginary perturbation
Solver                         ... POPLE
Max. number of iterations      ... 64
Convergence tolerance          ... 1.000e-03
Integral handling              ... Direct
DFT GridXC                     ... 1
COSX GridX                     ... 1
COSX IntAccX                   ... 3.067
COSX Algorithm                 ... Auto
Number of perturbations        ... 3
Number of operators            ... 2
Orbital ranges used for CP-SCF:
 Operator 0:  Orbitals   0...116  to 117...516
 Operator 1:  Orbitals   0...115  to 116...516
Variables per perturbation     ... 93316
DFT calculation                         ... on
XC functional terms                     ... off
Hybrid DFT                              ... on
   Exchange mixing (SCF)                ...  0.200
   Exchange mixing (CP-SCF)             ...  0.200
   GGA exch. scaling(SCF)               ...  0.720
   GGA exch. scaling (CP-SCF)           ...  0.720
   GGA corr. scaling (SCF)              ...  0.810
   GGA corr. scaling (CP-SCF)           ...  0.810

CP-SCF GRID
-----------

General Integration Accuracy     IntAcc      ... 3.467
Radial Grid Type                 RadialGrid  ... OptM3 with GC (2021)
Angular Grid (max. ang.)         AngularGrid ... 1 (Lebedev-50)
Angular grid pruning method      GridPruning ... 4 (adaptive)
Weight generation scheme         WeightScheme... Becke
Basis function cutoff            BFCut       ... 1.0000e-10
Integration weight cutoff        WCut        ... 1.0000e-14
Angular grids for H and He will be reduced by one unit
Partially contracted basis set               ... off
Rotationally invariant grid construction     ... off

Total number of grid points                  ...    31416
Total number of batches                      ...      508
Average number of points per batch           ...       61
Average number of grid points per atom       ...      982

CP-SCF GRIDX
------------

General Integration Accuracy     IntAcc      ... 3.067
Radial Grid Type                 RadialGrid  ... OptM3 with GC (2021)
Angular Grid (max. ang.)         AngularGrid ... 1 (Lebedev-50)
Angular grid pruning method      GridPruning ... 4 (adaptive)
Weight generation scheme         WeightScheme... Becke
Basis function cutoff            BFCut       ... 1.0000e-10
Integration weight cutoff        WCut        ... 1.0000e-14
Angular grids for H and He will be reduced by one unit
Partially contracted basis set               ... on
Rotationally invariant grid construction     ... off

Total number of grid points                  ...    13971
Total number of batches                      ...      236
Average number of points per batch           ...       59
Average number of grid points per atom       ...      437

Memory available               ... 843.5 MB
Memory needed per perturbation ...  34.9 MB
Perturbations treated per batch... 3
Number of batches              ... 1
     CP-SCF ITERATION   0:   1.3162e+01 (   5.8 sec   0/  3 done)
     CP-SCF ITERATION   1:   3.3586e+00 (   5.6 sec   0/  3 done)
     CP-SCF ITERATION   2:   7.1161e-01 (   5.6 sec   0/  3 done)
     CP-SCF ITERATION   3:   1.9291e-01 (   5.6 sec   0/  3 done)
     CP-SCF ITERATION   4:   4.0334e-02 (   5.6 sec   0/  3 done)
     CP-SCF ITERATION   5:   1.1049e-02 (   5.6 sec   0/  3 done)
     CP-SCF ITERATION   6:   2.6568e-03 (   5.6 sec   0/  3 done)
     CP-SCF ITERATION   7:   4.3937e-04 (   5.6 sec   3/  3 done)
                    *** THE CP-SCF HAS CONVERGED ***

Forming final perturbed densities           ... done
Transforming perturbed density to AO basis  ... done

 Raw HFC matrix (all values in MHz): 
 -----------------------------------
              -127.2391             -33.8733             113.3988
               -34.3713               9.3016              77.0160
               112.9981              76.3478            -120.4064

 A(FC)         -67.9316             -67.9316             -67.9316
 A(SD)          52.3460             120.2552            -172.6012
 A(ORB+DIA)    -10.1506              -4.9936             -19.4049    A(PC) = -11.5164
 A(ORB)        -10.1512              -4.9931             -19.4048    A(PC) = -11.5164
 A(DIA)          0.0006              -0.0004              -0.0001    A(PC) =   0.0000
             ----------           ----------           ----------
 A(Tot)        -25.7362              47.3300            -259.9377    A(iso)=  -79.4480
 Orientation: 
  X          -0.7384748            0.1208301            0.6633664
  Y           0.3959150            0.8740654            0.2815334
  Z          -0.5458079            0.4705420           -0.6933137

Notes:  (1) The A matrix conforms to the "SAI" spin Hamiltonian convention.
        (2) Tensor is right-handed.

 Raw EFG matrix (all values in a.u.**-3):
 -----------------------------------
             0.0952       0.6830      -0.1288
             0.6830       0.4057      -0.2582
            -0.1288      -0.2582      -0.5009

 V(El)      -0.8004      -0.6806       1.4810
 V(Nuc)      0.3773       0.0998      -0.4771
         ----------   ----------   ----------
 V(Tot)     -0.4231      -0.5807       1.0038 
 Orientation: 
  X       0.7634270   -0.2204765   -0.6070991
  Y      -0.5028547    0.3870137   -0.7728891
  Z       0.4053596    0.8953270    0.1845891

Note: Tensor is right-handed


 Quadrupole tensor eigenvalues (in MHz;Q=-0.0430 I=  3.5)
  e**2qQ            =   -10.142353 MHz 
  e**2qQ/(4I*(2I-1))=    -0.120742 MHz 
  eta               =     0.157046
  NOTE: the diagonal representation of the SH term I*Q*I = e**2qQ/(4I(2I-1))*[-(1-eta),-(1+eta),2]

 RHO(0)=   8115.303562800 a.u.**-3


--------------------------------------------------------------------------------
----------------------------------------------------------------------------
                           ORCA EULER ANGLE PROGRAM
----------------------------------------------------------------------------

Only g-tensor available        -->  using g-tensor as reference tensor

Reference tensor               ...  g

g-tensor ordering              ...  |g_min> --> |gx>
                                    |g_mid> --> |gy>
                                    |g_max> --> |gz>

A- and EFG-tensor ordering     ...  the axes |Ax>, |Qx>, |Ay>, etc. are assigned
                                    such that the Euler rotation is minimal. You
                                    can find the respective eigenvalues as Ax,
                                    EFGx, Ay, etc. in the tables below.
                                    The relation of |Ax>, |Ay>,  etc. to Amin, Amid, etc.
                                    (as printed in the ORCA EPR/NMR CALCULATION Output)
                                    is obtained in the detailed printout.

Euler rotation around          ...  z - y - z
   First rotation              -->  by alpha around z
   Second rotation             -->  by beta around y'
   Third rotation              -->  by gamma around z''
   Positive / Negative angle   -->  clockwise / counterclockwise rotation

Plot EFG-tensors                    (-)
Plot HFC-tensors                    (-)
Detailed Printout                   (-)

-------------------------------------------------------------------------
          Euler rotation of hyperfine tensor to g-tensor
-------------------------------------------------------------------------

-------------------------------------------------------------------
 Atom  |   Alpha    Beta    Gamma   |   Ax       Ay       Az 
       |          [degrees]         |           [MHz]         
-------------------------------------------------------------------
 19H       -0.4     27.0     45.2      -0.67     0.99    -0.70
 20H      157.1     22.7   -125.5      -0.30     0.58    -0.26
 21H      -15.0     46.2     45.4      -0.16     0.43    -0.16
 22H     -159.1     21.6   -179.5      -0.23     0.46    -0.24
 23H     -125.5     35.6    158.4      -0.28     0.44    -0.26
 24H      132.2     43.8   -173.8       0.74    -0.46    -0.50
 26H     -156.5     21.7    129.9      -0.29     0.58    -0.26
 27H        0.3     24.1    -40.0      -0.68     0.98    -0.71
 28H      156.7     20.4   -173.2      -0.23     0.45    -0.23
 29H       15.9     43.2    -41.6      -0.16     0.43    -0.17
 30H      137.4     43.4    179.3      -0.46     0.74    -0.50
 31H      128.0     37.2   -156.8      -0.27     0.44    -0.26
  0V      163.6      9.8   -161.4    -259.94   -25.74    47.33
-------------------------------------------------------------------


-------------------------------------------------------------------------------
    Euler rotation of Electric Field Gradient (EFG) tensor to g-tensor
-------------------------------------------------------------------------------

-------------------------------------------------------------------
 Atom  |   Alpha    Beta    Gamma  |   EFGx     EFGy     EFGz
       |          [degrees]        |         [a.u.**-3]       
-------------------------------------------------------------------
 19H       10.5     37.5    -34.5     -0.14     0.28    -0.14
 20H     -160.7     45.9    134.8     -0.14    -0.15     0.28
 21H      146.7     12.5   -162.9      0.28    -0.14    -0.14
 22H      137.4      8.9   -170.2     -0.15     0.29    -0.14
 23H       55.2     36.6    -83.8     -0.14    -0.14     0.28
 24H       13.3     46.3    -44.8     -0.14     0.28    -0.14
 26H      160.1     46.2   -129.6     -0.14    -0.15     0.28
 27H       -9.5     37.8     38.4     -0.14     0.28    -0.14
 28H     -140.4      8.4    178.3     -0.15     0.29    -0.14
 29H     -148.4     12.0    169.7      0.28    -0.14    -0.14
 30H      -12.4     46.0     48.9     -0.14     0.28    -0.14
 31H      -54.0     36.2     87.8     -0.14    -0.14     0.28
  0V       -8.5     39.0      2.7     -0.58    -0.42     1.00
-------------------------------------------------------------------


Maximum memory used throughout the entire EPRNMR-calculation: 246.5 MB

Timings for individual modules:

Sum of individual times         ...     2645.050 sec (=  44.084 min)
GTO integral calculation        ...        1.190 sec (=   0.020 min)   0.0 %
Spin-Orbit-Coupling Matrices    ...       10.967 sec (=   0.183 min)   0.4 %
SCF iterations                  ...      262.191 sec (=   4.370 min)   9.9 %
EPR/NMR calculation             ...     2370.702 sec (=  39.512 min)  89.6 %
                             ****ORCA TERMINATED NORMALLY****
TOTAL RUN TIME: 0 days 0 hours 44 minutes 6 seconds 49 msec
