
                                 *****************
                                 * O   R   C   A *
                                 *****************

                                            #,                                       
                                            ###                                      
                                            ####                                     
                                            #####                                    
                                            ######                                   
                                           ########,                                 
                                     ,,################,,,,,                         
                               ,,#################################,,                 
                          ,,##########################################,,             
                       ,#########################################, ''#####,          
                    ,#############################################,,   '####,        
                  ,##################################################,,,,####,       
                ,###########''''           ''''###############################       
              ,#####''   ,,,,##########,,,,          '''####'''          '####       
            ,##' ,,,,###########################,,,                        '##       
           ' ,,###''''                  '''############,,,                           
         ,,##''                                '''############,,,,        ,,,,,,###''
      ,#''                                            '''#######################'''  
     '                                                          ''''####''''         
             ,#######,   #######,   ,#######,      ##                                
            ,#'     '#,  ##    ##  ,#'     '#,    #''#        ######   ,####,        
            ##       ##  ##   ,#'  ##            #'  '#       #        #'  '#        
            ##       ##  #######   ##           ,######,      #####,   #    #        
            '#,     ,#'  ##    ##  '#,     ,#' ,#      #,         ##   #,  ,#        
             '#######'   ##     ##  '#######'  #'      '#     #####' # '####'        



                  #######################################################
                  #                        -***-                        #
                  #          Department of theory and spectroscopy      #
                  #    Directorship and core code : Frank Neese         #
                  #        Max Planck Institute fuer Kohlenforschung    #
                  #                Kaiser Wilhelm Platz 1               #
                  #                 D-45470 Muelheim/Ruhr               #
                  #                      Germany                        #
                  #                                                     #
                  #                  All rights reserved                #
                  #                        -***-                        #
                  #######################################################


                         Program Version 5.0.4 -  RELEASE  -


 With contributions from (in alphabetic order):
   Daniel Aravena         : Magnetic Suceptibility
   Michael Atanasov       : Ab Initio Ligand Field Theory (pilot matlab implementation)
   Alexander A. Auer      : GIAO ZORA, VPT2 properties, NMR spectrum
   Ute Becker             : Parallelization
   Giovanni Bistoni       : ED, misc. LED, open-shell LED, HFLD
   Martin Brehm           : Molecular dynamics
   Dmytro Bykov           : SCF Hessian
   Vijay G. Chilkuri      : MRCI spin determinant printing, contributions to CSF-ICE
   Dipayan Datta          : RHF DLPNO-CCSD density
   Achintya Kumar Dutta   : EOM-CC, STEOM-CC
   Dmitry Ganyushin       : Spin-Orbit,Spin-Spin,Magnetic field MRCI
   Miquel Garcia          : C-PCM and meta-GGA Hessian, CC/C-PCM, Gaussian charge scheme
   Yang Guo               : DLPNO-NEVPT2, F12-NEVPT2, CIM, IAO-localization
   Andreas Hansen         : Spin unrestricted coupled pair/coupled cluster methods
   Benjamin Helmich-Paris : MC-RPA, TRAH-SCF, COSX integrals
   Lee Huntington         : MR-EOM, pCC
   Robert Izsak           : Overlap fitted RIJCOSX, COSX-SCS-MP3, EOM
   Marcus Kettner         : VPT2
   Christian Kollmar      : KDIIS, OOCD, Brueckner-CCSD(T), CCSD density, CASPT2, CASPT2-K
   Simone Kossmann        : Meta GGA functionals, TD-DFT gradient, OOMP2, MP2 Hessian
   Martin Krupicka        : Initial AUTO-CI
   Lucas Lang             : DCDCAS
   Marvin Lechner         : AUTO-CI (C++ implementation), FIC-MRCC
   Dagmar Lenk            : GEPOL surface, SMD
   Dimitrios Liakos       : Extrapolation schemes; Compound Job, initial MDCI parallelization
   Dimitrios Manganas     : Further ROCIS development; embedding schemes
   Dimitrios Pantazis     : SARC Basis sets
   Anastasios Papadopoulos: AUTO-CI, single reference methods and gradients
   Taras Petrenko         : DFT Hessian,TD-DFT gradient, ASA, ECA, R-Raman, ABS, FL, XAS/XES, NRVS
   Peter Pinski           : DLPNO-MP2, DLPNO-MP2 Gradient
   Christoph Reimann      : Effective Core Potentials
   Marius Retegan         : Local ZFS, SOC
   Christoph Riplinger    : Optimizer, TS searches, QM/MM, DLPNO-CCSD(T), (RO)-DLPNO pert. Triples
   Tobias Risthaus        : Range-separated hybrids, TD-DFT gradient, RPA, STAB
   Michael Roemelt        : Original ROCIS implementation
   Masaaki Saitow         : Open-shell DLPNO-CCSD energy and density
   Barbara Sandhoefer     : DKH picture change effects
   Avijit Sen             : IP-ROCIS
   Kantharuban Sivalingam : CASSCF convergence, NEVPT2, FIC-MRCI
   Bernardo de Souza      : ESD, SOC TD-DFT
   Georgi Stoychev        : AutoAux, RI-MP2 NMR, DLPNO-MP2 response
   Willem Van den Heuvel  : Paramagnetic NMR
   Boris Wezisla          : Elementary symmetry handling
   Frank Wennmohs         : Technical directorship


 We gratefully acknowledge several colleagues who have allowed us to
 interface, adapt or use parts of their codes:
   Stefan Grimme, W. Hujo, H. Kruse, P. Pracht,  : VdW corrections, initial TS optimization,
                  C. Bannwarth, S. Ehlert          DFT functionals, gCP, sTDA/sTD-DF
   Ed Valeev, F. Pavosevic, A. Kumar             : LibInt (2-el integral package), F12 methods
   Garnet Chan, S. Sharma, J. Yang, R. Olivares  : DMRG
   Ulf Ekstrom                                   : XCFun DFT Library
   Mihaly Kallay                                 : mrcc  (arbitrary order and MRCC methods)
   Jiri Pittner, Ondrej Demel                    : Mk-CCSD
   Frank Weinhold                                : gennbo (NPA and NBO analysis)
   Christopher J. Cramer and Donald G. Truhlar   : smd solvation model
   Lars Goerigk                                  : TD-DFT with DH, B97 family of functionals
   V. Asgeirsson, H. Jonsson                     : NEB implementation
   FAccTs GmbH                                   : IRC, NEB, NEB-TS, DLPNO-Multilevel, CI-OPT
                                                   MM, QMMM, 2- and 3-layer-ONIOM, Crystal-QMMM,
                                                   LR-CPCM, SF, NACMEs, symmetry and pop. for TD-DFT,
                                                   nearIR, NL-DFT gradient (VV10), updates on ESD,
                                                   ML-optimized integration grids
   S Lehtola, MJT Oliveira, MAL Marques          : LibXC Library
   Liviu Ungur et al                             : ANISO software


 Your calculation uses the libint2 library for the computation of 2-el integrals
 For citations please refer to: http://libint.valeyev.net

 Your ORCA version has been built with support for libXC version: 5.1.0
 For citations please refer to: https://tddft.org/programs/libxc/

 This ORCA versions uses:
   CBLAS   interface :  Fast vector & matrix operations
   LAPACKE interface :  Fast linear algebra routines
   SCALAPACK package :  Parallel linear algebra routines
   Shared memory     :  Shared parallel matrices
   BLAS/LAPACK       :  OpenBLAS 0.3.15  USE64BITINT DYNAMIC_ARCH NO_AFFINITY Prescott SINGLE_THREADED
        Core in use  :  Prescott
   Copyright (c) 2011-2014, The OpenBLAS Project


================================================================================

----- Orbital basis set information -----
Your calculation utilizes the basis: TZVP 

The basis set includes element-specific modifications.

Your calculation utilizes the basis: CP(PPP) 

----- AuxJ basis set information -----
Your calculation utilizes the auxiliary basis: def2/J
   F. Weigend, Phys. Chem. Chem. Phys. 8, 1057 (2006).

================================================================================
                                        WARNINGS
                       Please study these warnings very carefully!
================================================================================


WARNING: your system is open-shell and RHF/RKS was chosen
  ===> : WILL SWITCH to UHF/UKS


INFO   : the flag for use of the SHARK integral package has been found!

================================================================================
                                       INPUT FILE
================================================================================
NAME = input_14.inp
|  1> ! nofrozencore ReducedPop printbasis
|  2> ! B3LYP TZVP
|  3> 
|  4> %basis
|  5> newgto V "CP(PPP)" end
|  6> end
|  7> 
|  8> %pal
|  9> nprocs 4
| 10> end
| 11> 
| 12> % sym SymThresh 1e-2 end
| 13> * xyz -2 2 
| 14> V 0.9935542899440877 0.09888170710446789 -0.499661798354453
| 15> S 0.48679995005350823 -2.3312915259106077 -0.13507851331093937
| 16> S -0.7979832109399422 -0.09109309061335007 -2.234261691143069
| 17> S 1.4227016694476713 0.08172351019315688 1.8565898698478125
| 18> S 0.1482328436914456 2.3330125046275194 -0.27045343111111814
| 19> O 2.483852407461545 0.4309917656873017 -1.0444549709007214
| 20> C -1.220236706233949 1.6066802598063075 -2.5434258654045845
| 21> C -0.8687549975430059 2.5997520457152485 -1.6842265337915294
| 22> C 1.2168462826659179 -2.6339957465583423 1.4564171565151578
| 23> C 1.544538887640141 -1.6195035448471604 2.2999278251764417
| 24> S -2.212685894031648 1.9498574107876818 -4.01222461561647
| 25> S -1.370431022082971 4.325880619732571 -1.85844975337693
| 26> S 2.168006684206202 -1.8529444573353395 3.978466166503427
| 27> S 1.434776379212716 -4.356884754010694 1.9563400191979483
| 28> C -3.2161365545421874 4.313196180672472 -1.70310894512562
| 29> C 0.7956287566879898 -2.685387936175423 4.904113175766913
| 30> C -3.8463681025542855 2.320805660605405 -3.2303390486549324
| 31> C 0.0820659033054697 -4.5067401798276014 3.2083081642344045
| 32> C -4.0400396939156105 3.7975996432983004 -2.8863724571745557
| 33> H -3.921652451249759 1.682125271012136 -2.339391205712098
| 34> H -4.61869901248588 1.9997623812257672 -3.9462292582516296
| 35> H -5.10154176490575 3.961554051666398 -2.639244779049844
| 36> H -3.822731725538958 4.4010565714603915 -3.7760634582570574
| 37> H -3.4634590281888786 5.371479960165973 -1.5256602842593459
| 38> H -3.4657180282082463 3.7551453473534546 -0.7883797746124966
| 39> C 0.5288498405875216 -4.168380555063155 4.630395868314927
| 40> H -0.2753150625547006 -5.547924430139853 3.1668655367650036
| 41> H -0.734325342650666 -3.8530335485727387 2.8686476401510084
| 42> H 1.4261989358992346 -4.752851820532182 4.868629204400127
| 43> H -0.2588725299387964 -4.491294942317023 5.3302766629806015
| 44> H -0.11930879094564645 -2.0930584660096128 4.742366887447087
| 45> H 1.090931828459505 -2.5607885122939167 5.959211294574686
| 46> * 
| 47> 
| 48> % eprnmr
| 49> gtensor true
| 50> Nuclei = all H {aiso,adip,aorb,fgrad,rho}
| 51> Nuclei = all V {aiso,adip,aorb,fgrad,rho}
| 52> end
| 53> 
| 54>                          ****END OF INPUT****
================================================================================

------------------------------------------------------------------------------
                            SYMMETRY HANDLING SETUP
------------------------------------------------------------------------------

------------------
SYMMETRY DETECTION
------------------
The point group will now be determined using a tolerance of 1.0000e-02.
Splitting atom subsets according to nuclear charge, mass and basis set.
Splitting atom subsets according to distance from the molecule's center.
Identifying relative distance patterns of the atoms.
Splitting atom subsets according to atoms' relative distance patterns.
Bring atoms of each subset into input order.
The molecule is neither linear nor planar.
There is at least one atom subset not centered around the molecule's center.
The molecule does not have a center of inversion.
Analyzing the first atom subset for its symmetry.
The subset is an off-center atom pair.
Testing point group C2v.
Test failed.
Testing point group C2.
Test failed.
Testing point group Cs.
Test failed.
Testing point group Cs.
Test failed.
No testing is needed for point group C1.
This point group has been found:    C1
Largest non-degenerate subgroup:    C1


Mass-centered symmetry-perfected Cartesians (point group C1):

Atom          Symmetry-perfected Cartesians (x, y, z; au)
  0       1.879470853136    0.187137159383   -0.945340410050
  1       0.921843933567   -4.405224709002   -0.256377848312
  2      -1.506044382184   -0.171863180651   -4.223259159349
  3       2.690441871488    0.154712866268    3.507329945448
  4       0.282044824588    4.409032514060   -0.512199368357
  5       4.695726153142    0.814734216425   -1.974850305792
  6      -2.303987847381    3.036463489112   -4.807494779124
  7      -1.639783676873    4.913097195804   -3.183843347927
  8       2.301431567278   -4.977252785608    2.751113110981
  9       2.920680846790   -3.060140359375    4.345117265791
 10      -4.179445014151    3.684974319886   -7.583122162870
 11      -2.587813971207    8.175007472633   -3.513077519113
 12       4.098864235620   -3.501279752430    7.517095036186
 13       2.713259766090   -8.233041168836    3.695830409537
 14      -6.075691951419    8.151037356647   -3.219525934096
 15       1.505445800372   -5.074369949407    9.266314380377
 16      -7.266656978119    4.385964921899   -6.105572573247
 17       0.157007428139   -8.516226883313    6.061707332049
 18      -7.632643245712    7.176701105411   -5.455569916130
 19      -7.408923779324    3.179033898462   -4.421925150477
 20      -8.726150882652    3.779281046736   -7.458409011340
 21      -9.638591450474    7.486530035676   -4.988566284363
 22      -7.221990698762    8.317069433255   -7.136842251991
 23      -6.543063693375   10.150903871861   -2.884196562228
 24      -6.547332584748    7.096474112867   -1.490938315117
 25       1.001306710638   -7.876819857731    8.749063631179
 26      -0.518344722813  -10.483779971355    5.983392115862
 27      -1.385748444848   -7.280900378313    5.419841963028
 28       2.697050747299   -8.981310482614    9.199259392350
 29      -0.487272839220   -8.487039614344   10.071646659488
 30      -0.223535594297   -3.955029469743    8.960658192274
 31       2.063487732526   -4.838911161827   11.260160869339


------------------
SYMMETRY REDUCTION
------------------
ORCA supports only abelian point groups.
It is now checked, if the determined point group is supported:
Point Group ( C1    ) is          ... supported

The point group is C1 - hence turning off symmetry
If this is a round-off problem, please increase the symmetry
        detection tolerance (%method SymThresh)

Storing the symmetry object:
Symmetry file                     ... input_14.sym.tmp
Writing symmetry information      ... done

                       ****************************
                       * Single Point Calculation *
                       ****************************

---------------------------------
CARTESIAN COORDINATES (ANGSTROEM)
---------------------------------
  V      0.994573    0.099029   -0.500253
  S      0.487819   -2.331145   -0.135669
  S     -0.796964   -0.090946   -2.234852
  S      1.423721    0.081871    1.855999
  S      0.149252    2.333160   -0.271044
  O      2.484871    0.431139   -1.045046
  C     -1.219218    1.606827   -2.544017
  C     -0.867736    2.599899   -1.684817
  C      1.217865   -2.633849    1.455826
  C      1.545558   -1.619357    2.299337
  S     -2.211667    1.950004   -4.012815
  S     -1.369412    4.326028   -1.859041
  S      2.169026   -1.852797    3.977875
  S      1.435795   -4.356738    1.955749
  C     -3.215118    4.313343   -1.703700
  C      0.796648   -2.685241    4.903522
  C     -3.845349    2.320953   -3.230930
  C      0.083085   -4.506593    3.207717
  C     -4.039021    3.797747   -2.886963
  H     -3.920634    1.682272   -2.339982
  H     -4.617680    1.999909   -3.946820
  H     -5.100523    3.961701   -2.639836
  H     -3.821713    4.401204   -3.776654
  H     -3.462440    5.371627   -1.526251
  H     -3.464699    3.755292   -0.788971
  C      0.529869   -4.168234    4.629805
  H     -0.274296   -5.547777    3.166275
  H     -0.733306   -3.852887    2.868057
  H      1.427218   -4.752705    4.868038
  H     -0.257854   -4.491148    5.329686
  H     -0.118290   -2.092911    4.741776
  H      1.091951   -2.560641    5.958620

----------------------------
CARTESIAN COORDINATES (A.U.)
----------------------------
  NO LB      ZA    FRAG     MASS         X           Y           Z
   0 V    23.0000    0    50.940    1.879471    0.187137   -0.945340
   1 S    16.0000    0    32.060    0.921844   -4.405225   -0.256378
   2 S    16.0000    0    32.060   -1.506044   -0.171863   -4.223259
   3 S    16.0000    0    32.060    2.690442    0.154713    3.507330
   4 S    16.0000    0    32.060    0.282045    4.409033   -0.512199
   5 O     8.0000    0    15.999    4.695726    0.814734   -1.974850
   6 C     6.0000    0    12.011   -2.303988    3.036463   -4.807495
   7 C     6.0000    0    12.011   -1.639784    4.913097   -3.183843
   8 C     6.0000    0    12.011    2.301432   -4.977253    2.751113
   9 C     6.0000    0    12.011    2.920681   -3.060140    4.345117
  10 S    16.0000    0    32.060   -4.179445    3.684974   -7.583122
  11 S    16.0000    0    32.060   -2.587814    8.175007   -3.513078
  12 S    16.0000    0    32.060    4.098864   -3.501280    7.517095
  13 S    16.0000    0    32.060    2.713260   -8.233041    3.695830
  14 C     6.0000    0    12.011   -6.075692    8.151037   -3.219526
  15 C     6.0000    0    12.011    1.505446   -5.074370    9.266314
  16 C     6.0000    0    12.011   -7.266657    4.385965   -6.105573
  17 C     6.0000    0    12.011    0.157007   -8.516227    6.061707
  18 C     6.0000    0    12.011   -7.632643    7.176701   -5.455570
  19 H     1.0000    0     1.008   -7.408924    3.179034   -4.421925
  20 H     1.0000    0     1.008   -8.726151    3.779281   -7.458409
  21 H     1.0000    0     1.008   -9.638591    7.486530   -4.988566
  22 H     1.0000    0     1.008   -7.221991    8.317069   -7.136842
  23 H     1.0000    0     1.008   -6.543064   10.150904   -2.884197
  24 H     1.0000    0     1.008   -6.547333    7.096474   -1.490938
  25 C     6.0000    0    12.011    1.001307   -7.876820    8.749064
  26 H     1.0000    0     1.008   -0.518345  -10.483780    5.983392
  27 H     1.0000    0     1.008   -1.385748   -7.280900    5.419842
  28 H     1.0000    0     1.008    2.697051   -8.981310    9.199259
  29 H     1.0000    0     1.008   -0.487273   -8.487040   10.071647
  30 H     1.0000    0     1.008   -0.223536   -3.955029    8.960658
  31 H     1.0000    0     1.008    2.063488   -4.838911   11.260161

--------------------------------
INTERNAL COORDINATES (ANGSTROEM)
--------------------------------
 V      0   0   0     0.000000000000     0.00000000     0.00000000
 S      1   0   0     2.509076099921     0.00000000     0.00000000
 S      1   2   0     2.500906601396    83.25375237     0.00000000
 S      1   2   3     2.395074905084    83.47131844   146.58132727
 S      1   2   3     2.399676070546   144.75684000    68.36107019
 O      1   2   3     1.621136999436   115.65295315   244.16121286
 C      3   1   2     1.776602051763   102.61307237   163.35719485
 C      7   3   1     1.359394885586   121.78073761   343.18766536
 C      2   1   3     1.776923172237   102.24897175   197.11221179
 C      9   2   1     1.359443679905   121.84618966    17.14102148
 S      7   3   1     1.805573514410   116.98993556   166.18654840
 S      8   7   3     1.805976859730   124.43205265   185.06795462
 S     10   9   2     1.805740212844   124.30005256   175.01734583
 S      9   2   1     1.807142199057   117.36941732   194.09879384
 C     12   8   7     1.852274432759   105.19860253    63.28082132
 C     13  10   9     1.852891175207   105.46961492   296.41082367
 C     11   7   3     1.848746927600   100.35870181   106.33732014
 C     14   9   2     1.849244850327   100.15619252   254.16172661
 C     17  11   7     1.528640627706   113.63850736    89.88019146
 H     17  11   7     1.098803181673   106.66896072   326.29861680
 H     17  11   7     1.100937152551   106.64205687   211.02725380
 H     19  17  11     1.102152341573   108.43259846   167.64766804
 H     19  17  11     1.096783066369   108.89983444    51.66037428
 H     15  12   8     1.101190715159   103.34017062   164.51503074
 H     15  12   8     1.100200481709   107.41237560    50.92271189
 C     18  14   9     1.528540663633   113.46047950   269.27797381
 H     18  14   9     1.101591253246   106.76430991   148.16386019
 H     18  14   9     1.099634620154   106.60558239    32.88462245
 H     26  18  14     1.097085767585   108.85516115   308.19548681
 H     26  18  14     1.102094987406   108.48416658   192.22105435
 H     16  13  10     1.101874212005   107.46770634   308.53245701
 H     16  13  10     1.102706198831   103.23150594   194.99755420

---------------------------
INTERNAL COORDINATES (A.U.)
---------------------------
 V      0   0   0     0.000000000000     0.00000000     0.00000000
 S      1   0   0     4.741466678018     0.00000000     0.00000000
 S      1   2   0     4.726028563153    83.25375237     0.00000000
 S      1   2   3     4.526035640836    83.47131844   146.58132727
 S      1   2   3     4.534730583456   144.75684000    68.36107019
 O      1   2   3     3.063504954501   115.65295315   244.16121286
 C      3   1   2     3.357291326795   102.61307237   163.35719485
 C      7   3   1     2.568884041610   121.78073761   343.18766536
 C      2   1   3     3.357898156547   102.24897175   197.11221179
 C      9   2   1     2.568976249510   121.84618966    17.14102148
 S      7   3   1     3.412039456897   116.98993556   166.18654840
 S      8   7   3     3.412801669089   124.43205265   185.06795462
 S     10   9   2     3.412354471284   124.30005256   175.01734583
 S      9   2   1     3.415003841271   117.36941732   194.09879384
 C     12   8   7     3.500291402779   105.19860253    63.28082132
 C     13  10   9     3.501456877101   105.46961492   296.41082367
 C     11   7   3     3.493625384092   100.35870181   106.33732014
 C     14   9   2     3.494566321683   100.15619252   254.16172661
 C     17  11   7     2.888712143550   113.63850736    89.88019146
 H     17  11   7     2.076437088443   106.66896072   326.29861680
 H     17  11   7     2.080469708980   106.64205687   211.02725380
 H     19  17  11     2.082766083433   108.43259846   167.64766804
 H     19  17  11     2.072619623760   108.89983444    51.66037428
 H     15  12   8     2.080948872868   103.34017062   164.51503074
 H     15  12   8     2.079077602838   107.41237560    50.92271189
 C     18  14   9     2.888523238829   113.46047950   269.27797381
 H     18  14   9     2.081705780159   106.76430991   148.16386019
 H     18  14   9     2.078008279469   106.60558239    32.88462245
 H     26  18  14     2.073191646159   108.85516115   308.19548681
 H     26  18  14     2.082657699764   108.48416658   192.22105435
 H     16  13  10     2.082240494720   107.46770634   308.53245701
 H     16  13  10     2.083812721968   103.23150594   194.99755420

---------------------
BASIS SET INFORMATION
---------------------
There are 5 groups of distinct atoms

 Group   1 Type V   : 17s11p5d1f contracted to 17s7p3d1f pattern {11111111111111111/3311111/311/1}
 Group   2 Type S   : 14s9p1d contracted to 5s4p1d pattern {73211/6111/1}
 Group   3 Type O   : 11s6p1d contracted to 5s3p1d pattern {62111/411/1}
 Group   4 Type C   : 11s6p1d contracted to 5s3p1d pattern {62111/411/1}
 Group   5 Type H   : 5s1p contracted to 3s1p pattern {311/1}

Atom   0V    basis set group =>   1
Atom   1S    basis set group =>   2
Atom   2S    basis set group =>   2
Atom   3S    basis set group =>   2
Atom   4S    basis set group =>   2
Atom   5O    basis set group =>   3
Atom   6C    basis set group =>   4
Atom   7C    basis set group =>   4
Atom   8C    basis set group =>   4
Atom   9C    basis set group =>   4
Atom  10S    basis set group =>   2
Atom  11S    basis set group =>   2
Atom  12S    basis set group =>   2
Atom  13S    basis set group =>   2
Atom  14C    basis set group =>   4
Atom  15C    basis set group =>   4
Atom  16C    basis set group =>   4
Atom  17C    basis set group =>   4
Atom  18C    basis set group =>   4
Atom  19H    basis set group =>   5
Atom  20H    basis set group =>   5
Atom  21H    basis set group =>   5
Atom  22H    basis set group =>   5
Atom  23H    basis set group =>   5
Atom  24H    basis set group =>   5
Atom  25C    basis set group =>   4
Atom  26H    basis set group =>   5
Atom  27H    basis set group =>   5
Atom  28H    basis set group =>   5
Atom  29H    basis set group =>   5
Atom  30H    basis set group =>   5
Atom  31H    basis set group =>   5

-------------------------
BASIS SET IN INPUT FORMAT
-------------------------

 # Basis set for element : H 
 NewGTO H 
 S 3 
   1      34.0613410000      0.0254393168
   2       5.1235746000      0.1900859340
   3       1.1646626000      0.8524411390
 S 1 
   1       0.3272304100      1.0000000000
 S 1 
   1       0.1030724100      1.0000000000
 P 1 
   1       0.8000000000      1.0000000000
  end;

 # Basis set for element : C 
 NewGTO C 
 S 6 
   1   13575.3496820000      0.0006064601
   2    2035.2333680000      0.0046978985
   3     463.2256235900      0.0243324735
   4     131.2001959800      0.0973999560
   5      42.8530158900      0.3019558443
   6      15.5841857700      0.6623361013
 S 2 
   1       6.2067138500      0.6559530795
   2       2.5764896500      0.3758563390
 S 1 
   1       0.5769633900      1.0000000000
 S 1 
   1       0.2297283100      1.0000000000
 S 1 
   1       0.0951644400      1.0000000000
 P 4 
   1      34.6972322400      0.0113272290
   2       7.9582622800      0.0761696612
   3       2.3780826900      0.3019225154
   4       0.8143320800      0.7278502776
 P 1 
   1       0.2888754700      1.0000000000
 P 1 
   1       0.1005682400      1.0000000000
 D 1 
   1       0.8000000000      1.0000000000
  end;

 # Basis set for element : O 
 NewGTO O 
 S 6 
   1   27032.3826310000      0.0005722654
   2    4052.3871392000      0.0044353333
   3     922.3272271000      0.0230201034
   4     261.2407098900      0.0928224938
   5      85.3546413500      0.2937849971
   6      31.0350352400      0.6740160462
 S 2 
   1      12.2608607300      0.6383993750
   2       4.9987076000      0.3953458663
 S 1 
   1       1.1703108200      1.0000000000
 S 1 
   1       0.4647474100      1.0000000000
 S 1 
   1       0.1850453600      1.0000000000
 P 4 
   1      63.2749548000      0.0120183316
   2      14.6270493800      0.0830054304
   3       4.4501223500      0.3199174388
   4       1.5275799600      0.7071554258
 P 1 
   1       0.5293511800      1.0000000000
 P 1 
   1       0.1747842100      1.0000000000
 D 1 
   1       1.2000000000      1.0000000000
  end;

 # Basis set for element : S 
 NewGTO S 
 S 7 
   1   60700.9281040000      0.0005238013
   2    9102.6106854000      0.0040506304
   3    2071.4166009000      0.0208270003
   4     586.0247682100      0.0814968475
   5     190.5539502100      0.2374911358
   6      67.6303842600      0.4472617145
   7      25.1273069100      0.3489191913
 S 3 
   1     112.5746301000      0.1004556993
   2      34.7955542200      0.4339117282
   3       6.5115556200     -1.2084330582
 S 2 
   1       3.2399032300      0.6749812922
   2       1.5477160900      0.3470879597
 S 1 
   1       0.4054103000      1.0000000000
 S 1 
   1       0.1455065100      1.0000000000
 P 6 
   1     564.3671602700      0.0025564845
   2     133.4262437900      0.0202874255
   3      42.4682711900      0.0927670112
   4      15.6165275800      0.2650208365
   5       6.1093988500      0.4486298663
   6       2.4404160200      0.3596369916
 P 1 
   1       0.8388220100      1.0000000000
 P 1 
   1       0.3128874700      1.0000000000
 P 1 
   1       0.1077010900      1.0000000000
 D 1 
   1       0.5500000000      1.0000000000
  end;

 # Basis set for element : V 
 NewGTO V 
 S 1 
   1  4239814.9912500000      1.0000000000
 S 1 
   1  1695925.9965000001      1.0000000000
 S 1 
   1  678370.3986000001      1.0000000000
 S 1 
   1  271348.1594400000      1.0000000000
 S 1 
   1   40672.0050780000      1.0000000000
 S 1 
   1    9257.0761385000      1.0000000000
 S 1 
   1    2622.7328773000      1.0000000000
 S 1 
   1     858.5948018500      1.0000000000
 S 1 
   1     314.1941865000      1.0000000000
 S 1 
   1     124.4786212700      1.0000000000
 S 1 
   1      50.4693993090      1.0000000000
 S 1 
   1      12.5138469110      1.0000000000
 S 1 
   1       5.3447758082      1.0000000000
 S 1 
   1       1.5755631295      1.0000000000
 S 1 
   1       0.6306903307      1.0000000000
 S 1 
   1       0.0879544416      1.0000000000
 S 1 
   1       0.0342969197      1.0000000000
 P 3 
   1    1450.0319327000     -0.0222847647
   2     343.7504988400     -0.1817959329
   3     110.8252170800     -0.8607412073
 P 3 
   1      41.8224645460     -0.2522537814
   2      17.0880737100     -0.4620379520
   3       7.2613218939     -0.3990010670
 P 1 
   1       2.9458145262      1.0000000000
 P 1 
   1       1.1650209680      1.0000000000
 P 1 
   1       0.4339937839      1.0000000000
 D 3 
   1      27.3603358640      0.0575501019
   2       7.4542765527      0.3023798347
   3       2.4632270217      0.7724212088
 D 1 
   1       0.8249954244      1.0000000000
 D 1 
   1       0.2526297057      1.0000000000
 P 1 
   1       0.1112480000      1.0000000000
 P 1 
   1       0.0363780000      1.0000000000
 F 1 
   1       1.8000000000      1.0000000000
  end;

---------------------------------
AUXILIARY/J BASIS SET INFORMATION
---------------------------------
There are 5 groups of distinct atoms

 Group   1 Type V   : 19s5p5d3f3g contracted to 8s5p5d2f3g pattern {121111111/11111/11111/21/111}
 Group   2 Type S   : 14s5p5d2f1g contracted to 8s4p3d1f1g pattern {71111111/2111/311/2/1}
 Group   3 Type O   : 12s5p4d2f1g contracted to 6s4p3d1f1g pattern {711111/2111/211/2/1}
 Group   4 Type C   : 12s5p4d2f1g contracted to 6s4p3d1f1g pattern {711111/2111/211/2/1}
 Group   5 Type H   : 5s2p1d contracted to 3s1p1d pattern {311/2/1}

Atom   0V    basis set group =>   1
Atom   1S    basis set group =>   2
Atom   2S    basis set group =>   2
Atom   3S    basis set group =>   2
Atom   4S    basis set group =>   2
Atom   5O    basis set group =>   3
Atom   6C    basis set group =>   4
Atom   7C    basis set group =>   4
Atom   8C    basis set group =>   4
Atom   9C    basis set group =>   4
Atom  10S    basis set group =>   2
Atom  11S    basis set group =>   2
Atom  12S    basis set group =>   2
Atom  13S    basis set group =>   2
Atom  14C    basis set group =>   4
Atom  15C    basis set group =>   4
Atom  16C    basis set group =>   4
Atom  17C    basis set group =>   4
Atom  18C    basis set group =>   4
Atom  19H    basis set group =>   5
Atom  20H    basis set group =>   5
Atom  21H    basis set group =>   5
Atom  22H    basis set group =>   5
Atom  23H    basis set group =>   5
Atom  24H    basis set group =>   5
Atom  25C    basis set group =>   4
Atom  26H    basis set group =>   5
Atom  27H    basis set group =>   5
Atom  28H    basis set group =>   5
Atom  29H    basis set group =>   5
Atom  30H    basis set group =>   5
Atom  31H    basis set group =>   5

-------------------------------------
AUXILIARY/J BASIS SET IN INPUT FORMAT
-------------------------------------

 # Auxiliary/J basis set for element : H 
 NewAuxJGTO H 
 S 3 
   1      15.6752927000      0.1007184237
   2       3.6063578000      0.3404257499
   3       1.2080016000      0.6491996172
 S 1 
   1       0.4726794000      1.0000000000
 S 1 
   1       0.2018100000      1.0000000000
 P 2 
   1       2.0281365000      0.5596620919
   2       0.5358730000      0.5596620919
 D 1 
   1       2.2165124000      1.0000000000
  end;

 # Auxiliary/J basis set for element : C 
 NewAuxJGTO C 
 S 7 
   1    1861.0916331000      0.0134602335
   2     642.9939764000      0.0299160374
   3     235.1105725000      0.1008649584
   4      90.7028894000      0.2370970548
   5      36.7794552000      0.3924037254
   6      15.6046273000      0.3195862154
   7       6.8907294000      0.0530104441
 S 1 
   1       3.1478850000     -1.0000000000
 S 1 
   1       1.4777287000      1.0000000000
 S 1 
   1       0.7076466000      1.0000000000
 S 1 
   1       0.3430122000      1.0000000000
 S 1 
   1       0.1669453000      1.0000000000
 P 2 
   1      13.5472892000     -0.6769313712
   2       5.4669419000     -0.3779500978
 P 1 
   1       2.1751721000      1.0000000000
 P 1 
   1       0.8582194000      1.0000000000
 P 1 
   1       0.3376720000      1.0000000000
 D 2 
   1       5.9287253000     -0.3533329857
   2       1.9809209000     -0.7456525731
 D 1 
   1       0.8055417000     -1.0000000000
 D 1 
   1       0.3531244000     -1.0000000000
 F 2 
   1       1.6755626000      0.6311076882
   2       0.5997536000      0.4968166032
 G 1 
   1       1.0024600000     -1.0000000000
  end;

 # Auxiliary/J basis set for element : O 
 NewAuxJGTO O 
 S 7 
   1    2876.8216605000      0.0168151159
   2    1004.7443032000      0.0340137548
   3     369.7579954000      0.1194951309
   4     142.9442404000      0.2664627624
   5      57.8366425000      0.4202764046
   6      24.3864983000      0.2765077335
   7      10.6622662000      0.0057008815
 S 1 
   1       4.8070437000     -1.0000000000
 S 1 
   1       2.2210770000      1.0000000000
 S 1 
   1       1.0447795000      1.0000000000
 S 1 
   1       0.4968425000      1.0000000000
 S 1 
   1       0.2371384000      1.0000000000
 P 2 
   1      64.2613382000     -0.2731534179
   2      16.3006076000     -0.8168011598
 P 1 
   1       4.3550542000      1.0000000000
 P 1 
   1       1.2019554000      1.0000000000
 P 1 
   1       0.3354196000      1.0000000000
 D 2 
   1       9.2146611000     -0.4661230638
   2       2.8435251000     -0.6600908911
 D 1 
   1       0.9955759000     -1.0000000000
 D 1 
   1       0.3649441000     -1.0000000000
 F 2 
   1       2.6420115000      0.5931563945
   2       0.7345613000      0.5931563945
 G 1 
   1       1.3931000000     -1.0000000000
  end;

 # Auxiliary/J basis set for element : S 
 NewAuxJGTO S 
 S 7 
   1    7399.0303145000      0.0295137551
   2    2710.1675859000      0.0559686311
   3    1034.3279062000      0.1764696370
   4     410.4645411000      0.3577969368
   5     168.9762502000      0.4299293578
   6      71.9687889000      0.1259148089
   7      31.6172683000     -0.0646025788
 S 1 
   1      14.2796836000      1.0000000000
 S 1 
   1       6.6060948000      1.0000000000
 S 1 
   1       3.1181477000      1.0000000000
 S 1 
   1       1.4954039000     -1.0000000000
 S 1 
   1       0.7254779000      1.0000000000
 S 1 
   1       0.3544216000      1.0000000000
 S 1 
   1       0.1735525000      1.0000000000
 P 2 
   1      12.6998799000      1.4059102813
   2       4.4295784000     -1.2124994202
 P 1 
   1       1.5232889000      1.0000000000
 P 1 
   1       0.5194667000     -1.0000000000
 P 1 
   1       0.1766547000     -1.0000000000
 D 3 
   1      16.8546461000      1.0295742104
   2       5.0810461000     -0.7461553923
   3       1.5102323000      0.8357028005
 D 1 
   1       0.4451331000      1.0000000000
 D 1 
   1       0.1308362000      1.0000000000
 F 2 
   1       1.0809860000      0.5572698934
   2       0.4161474000      0.5572698934
 G 1 
   1       0.6707100000     -1.0000000000
  end;

 # Auxiliary/J basis set for element : V 
 NewAuxJGTO V 
 S 12 
   1   11942.0842430000      0.0459866720
   2    2430.7110193000      0.1744615821
   3     841.0764301000      0.2900402792
   4     494.7508273000      0.1411212903
   5     291.0298903000      0.2660697186
   6     171.1940483000      0.0446365706
   7      59.2366916000     -0.0408204801
   8      34.8451117000      0.1394665381
   9      20.4971240000      0.2164746715
  10      12.0571314000      0.0864266611
  11       7.0924300000     -0.0568501658
  12       4.1720176000     -0.0126212852
 S 1 
   1       2.4541279000      1.0000000000
 S 1 
   1       1.4436046000      1.0000000000
 S 1 
   1       0.8491792000      1.0000000000
 S 1 
   1       0.2938336000      1.0000000000
 S 1 
   1       0.1728433000      1.0000000000
 S 1 
   1       0.1016725000      1.0000000000
 S 1 
   1       0.0598074000      1.0000000000
 P 1 
   1      16.7130979000     -1.0000000000
 P 1 
   1       4.7454037000     -1.0000000000
 P 1 
   1       1.3889998000      1.0000000000
 P 1 
   1       0.4142440000     -1.0000000000
 P 1 
   1       0.1243234000      1.0000000000
 D 1 
   1       7.7143225000      1.0000000000
 D 1 
   1       3.1170731000      1.0000000000
 D 1 
   1       1.2767950000     -1.0000000000
 D 1 
   1       0.5273386000      1.0000000000
 D 1 
   1       0.2184050000      1.0000000000
 F 2 
   1       3.1309344000     -1.0825667766
   2       1.0419780000      0.1809223232
 F 1 
   1       0.3559044000      1.0000000000
 G 1 
   1       8.7130110000      1.0000000000
 G 1 
   1       2.7493872000      1.0000000000
 G 1 
   1       0.8775089000      1.0000000000
  end;



           ************************************************************
           *        Program running with 4 parallel MPI-processes     *
           *              working on a common directory               *
           ************************************************************
------------------------------------------------------------------------------
                           ORCA GTO INTEGRAL CALCULATION
                           -- RI-GTO INTEGRALS CHOSEN --
------------------------------------------------------------------------------
------------------------------------------------------------------------------
                   ___                                                        
                  /   \      - P O W E R E D   B Y -                         
                 /     \                                                     
                 |  |  |   _    _      __       _____    __    __             
                 |  |  |  | |  | |    /  \     |  _  \  |  |  /  |          
                  \  \/   | |  | |   /    \    | | | |  |  | /  /          
                 / \  \   | |__| |  /  /\  \   | |_| |  |  |/  /          
                |  |  |   |  __  | /  /__\  \  |    /   |      \           
                |  |  |   | |  | | |   __   |  |    \   |  |\   \          
                \     /   | |  | | |  |  |  |  | |\  \  |  | \   \       
                 \___/    |_|  |_| |__|  |__|  |_| \__\ |__|  \__/        
                                                                              
                      - O R C A' S   B I G   F R I E N D -                    
                                      &                                       
                       - I N T E G R A L  F E E D E R -                       
                                                                              
 v1 FN, 2020, v2 2021                                                         
------------------------------------------------------------------------------


Reading SHARK input file input_14.SHARKINP.tmp ... ok
----------------------
SHARK INTEGRAL PACKAGE
----------------------

Number of atoms                             ...     32
Number of basis functions                   ...    517
Number of shells                            ...    255
Maximum angular momentum                    ...      3
Integral batch strategy                     ... SHARK/LIBINT Hybrid
RI-J (if used) integral strategy            ... SPLIT-RIJ (Revised 2003 algorithm where possible)
Printlevel                                  ...      1
Contraction scheme used                     ... SEGMENTED contraction
Coulomb Range Separation                    ... NOT USED
Exchange Range Separation                   ... NOT USED
Finite Nucleus Model                        ... NOT USED
Auxiliary Coulomb fitting basis             ... AVAILABLE
   # of basis functions in Aux-J            ...   1168
   # of shells in Aux-J                     ...    384
   Maximum angular momentum in Aux-J        ...      4
Auxiliary J/K fitting basis                 ... NOT available
Auxiliary Correlation fitting basis         ... NOT available
Auxiliary 'external' fitting basis          ... NOT available
Integral threshold                          ...     1.000000e-10
Primitive cut-off                           ...     1.000000e-11
Primitive pair pre-selection threshold      ...     1.000000e-11

Calculating pre-screening integrals         ... done (  0.1 sec) Dimension = 255
Organizing shell pair data                  ... done (  0.1 sec)
Shell pair information
Total number of shell pairs                 ...     32640
Shell pairs after pre-screening             ...     17815
Total number of primitive shell pairs       ...    123863
Primitive shell pairs kept                  ...     41721
          la=0 lb=0:   5383 shell pairs
          la=1 lb=0:   7053 shell pairs
          la=1 lb=1:   2303 shell pairs
          la=2 lb=0:   1671 shell pairs
          la=2 lb=1:   1116 shell pairs
          la=2 lb=2:    154 shell pairs
          la=3 lb=0:     70 shell pairs
          la=3 lb=1:     52 shell pairs
          la=3 lb=2:     12 shell pairs
          la=3 lb=3:      1 shell pairs

Calculating one electron integrals          ... done (  0.1 sec)
Calculating RI/J V-Matrix + Cholesky decomp.... done (  0.1 sec)
Calculating Nuclear repulsion               ... done (  0.0 sec) ENN=   3209.938371604244 Eh

SHARK setup successfully completed in   0.6 seconds

Maximum memory used throughout the entire GTOINT-calculation: 31.9 MB


           ************************************************************
           *        Program running with 4 parallel MPI-processes     *
           *              working on a common directory               *
           ************************************************************
-------------------------------------------------------------------------------
                                 ORCA SCF
-------------------------------------------------------------------------------

------------
SCF SETTINGS
------------
Hamiltonian:
 Density Functional     Method          .... DFT(GTOs)
 Exchange Functional    Exchange        .... B88
   X-Alpha parameter    XAlpha          ....  0.666667
   Becke's b parameter  XBeta           ....  0.004200
 Correlation Functional Correlation     .... LYP
 LDA part of GGA corr.  LDAOpt          .... VWN-5
 Gradients option       PostSCFGGA      .... off
 Hybrid DFT is turned on
   Fraction HF Exchange ScalHFX         ....  0.200000
   Scaling of DF-GGA-X  ScalDFX         ....  0.720000
   Scaling of DF-GGA-C  ScalDFC         ....  0.810000
   Scaling of DF-LDA-C  ScalLDAC        ....  1.000000
   Perturbative correction              ....  0.000000
   Density functional embedding theory  .... OFF
   NL short-range parameter             ....  4.800000
 RI-approximation to the Coulomb term is turned on
   Number of AuxJ basis functions       .... 1168
   RIJ-COSX (HFX calculated with COS-X)).... on


General Settings:
 Integral files         IntName         .... input_14
 Hartree-Fock type      HFTyp           .... UHF
 Total Charge           Charge          ....   -2
 Multiplicity           Mult            ....    2
 Number of Electrons    NEL             ....  233
 Basis Dimension        Dim             ....  517
 Nuclear Repulsion      ENuc            ....   3209.9383716042 Eh

Convergence Acceleration:
 DIIS                   CNVDIIS         .... on
   Start iteration      DIISMaxIt       ....    12
   Startup error        DIISStart       ....  0.200000
   # of expansion vecs  DIISMaxEq       ....     5
   Bias factor          DIISBfac        ....   1.050
   Max. coefficient     DIISMaxC        ....  10.000
 Trust-Rad. Augm. Hess. CNVTRAH         .... auto
   Auto Start mean grad. ratio tolernc. ....  1.125000
   Auto Start start iteration           ....    20
   Auto Start num. interpolation iter.  ....    10
   Max. Number of Micro iterations      ....    16
   Max. Number of Macro iterations      .... Maxiter - #DIIS iter
   Number of Davidson start vectors     ....     2
   Converg. threshold I  (grad. norm)   ....   5.000e-05
   Converg. threshold II (energy diff.) ....   1.000e-06
   Grad. Scal. Fac. for Micro threshold ....   0.100
   Minimum threshold for Micro iter.    ....   0.010
   NR start threshold (gradient norm)   ....   0.001
   Initial trust radius                 ....   0.400
   Minimum AH scaling param. (alpha)    ....   1.000
   Maximum AH scaling param. (alpha)    .... 1000.000
   Orbital update algorithm             .... Taylor
   White noise on init. David. guess    .... on
   Maximum white noise                  ....   0.010
   Quad. conv. algorithm                .... NR
 SOSCF                  CNVSOSCF        .... off
 Level Shifting         CNVShift        .... on
   Level shift para.    LevelShift      ....    0.2500
   Turn off err/grad.   ShiftErr        ....    0.0010
 Zerner damping         CNVZerner       .... off
 Static damping         CNVDamp         .... on
   Fraction old density DampFac         ....    0.7000
   Max. Damping (<1)    DampMax         ....    0.9800
   Min. Damping (>=0)   DampMin         ....    0.0000
   Turn off err/grad.   DampErr         ....    0.1000
 Fernandez-Rico         CNVRico         .... off

SCF Procedure:
 Maximum # iterations   MaxIter         ....   125
 SCF integral mode      SCFMode         .... Direct
   Integral package                     .... SHARK and LIBINT hybrid scheme
 Reset frequency        DirectResetFreq ....    20
 Integral Threshold     Thresh          ....  1.000e-10 Eh
 Primitive CutOff       TCut            ....  1.000e-11 Eh

Convergence Tolerance:
 Convergence Check Mode ConvCheckMode   .... Total+1el-Energy
 Convergence forced     ConvForced      .... 0
 Energy Change          TolE            ....  1.000e-06 Eh
 1-El. energy change                    ....  1.000e-03 Eh
 DIIS Error             TolErr          ....  1.000e-06


Diagonalization of the overlap matrix:
Smallest eigenvalue                        ... 1.809e-04
Time for diagonalization                   ...    0.085 sec
Threshold for overlap eigenvalues          ... 1.000e-08
Number of eigenvalues below threshold      ... 0
Time for construction of square roots      ...    0.071 sec
Total time needed                          ...    0.158 sec

Time for model grid setup =    0.356 sec

------------------------------
INITIAL GUESS: MODEL POTENTIAL
------------------------------
Loading Hartree-Fock densities                     ... done
Calculating cut-offs                               ... done
Initializing the effective Hamiltonian             ... done
Setting up the integral package (SHARK)            ... done
Starting the Coulomb interaction                   ... done (   0.4 sec)
Reading the grid                                   ... done
Mapping shells                                     ... done
Starting the XC term evaluation                    ... done (   0.2 sec)
  promolecular density results
     # of electrons  =    230.992289732
     EX              =   -307.530678266
     EC              =     -9.025463065
     EX+EC           =   -316.556141330
Transforming the Hamiltonian                       ... done (   0.1 sec)
Diagonalizing the Hamiltonian                      ... done (   0.1 sec)
Back transforming the eigenvectors                 ... done (   0.0 sec)
Now organizing SCF variables                       ... done
                      ------------------
                      INITIAL GUESS DONE (   1.2 sec)
                      ------------------
-------------------
DFT GRID GENERATION
-------------------

General Integration Accuracy     IntAcc      ... 4.388
Radial Grid Type                 RadialGrid  ... OptM3 with GC (2021)
Angular Grid (max. ang.)         AngularGrid ... 4 (Lebedev-302)
Angular grid pruning method      GridPruning ... 4 (adaptive)
Weight generation scheme         WeightScheme... Becke
Basis function cutoff            BFCut       ... 1.0000e-10
Integration weight cutoff        WCut        ... 1.0000e-14
Angular grids for H and He will be reduced by one unit
Partially contracted basis set               ... off
Rotationally invariant grid construction     ... off

Total number of grid points                  ...   184061
Total number of batches                      ...     2894
Average number of points per batch           ...       63
Average number of grid points per atom       ...     5752
Time for grid setup =    1.591 sec

--------------------
COSX GRID GENERATION
--------------------

GRIDX 1
-------
General Integration Accuracy     IntAcc      ... 3.816
Radial Grid Type                 RadialGrid  ... OptM3 with GC (2021)
Angular Grid (max. ang.)         AngularGrid ... 1 (Lebedev-50)
Angular grid pruning method      GridPruning ... 4 (adaptive)
Weight generation scheme         WeightScheme... Becke
Basis function cutoff            BFCut       ... 1.0000e-10
Integration weight cutoff        WCut        ... 1.0000e-14
Angular grids for H and He will be reduced by one unit
Partially contracted basis set               ... on
Rotationally invariant grid construction     ... off

Total number of grid points                  ...    22831
Total number of batches                      ...      374
Average number of points per batch           ...       61
Average number of grid points per atom       ...      713
UseSFitting                                  ... on

GRIDX 2
-------
General Integration Accuracy     IntAcc      ... 4.020
Radial Grid Type                 RadialGrid  ... OptM3 with GC (2021)
Angular Grid (max. ang.)         AngularGrid ... 2 (Lebedev-110)
Angular grid pruning method      GridPruning ... 4 (adaptive)
Weight generation scheme         WeightScheme... Becke
Basis function cutoff            BFCut       ... 1.0000e-10
Integration weight cutoff        WCut        ... 1.0000e-14
Angular grids for H and He will be reduced by one unit
Partially contracted basis set               ... on
Rotationally invariant grid construction     ... off

Total number of grid points                  ...    49148
Total number of batches                      ...      786
Average number of points per batch           ...       62
Average number of grid points per atom       ...     1536
UseSFitting                                  ... on

GRIDX 3
-------
General Integration Accuracy     IntAcc      ... 4.338
Radial Grid Type                 RadialGrid  ... OptM3 with GC (2021)
Angular Grid (max. ang.)         AngularGrid ... 3 (Lebedev-194)
Angular grid pruning method      GridPruning ... 4 (adaptive)
Weight generation scheme         WeightScheme... Becke
Basis function cutoff            BFCut       ... 1.0000e-10
Integration weight cutoff        WCut        ... 1.0000e-14
Angular grids for H and He will be reduced by one unit
Partially contracted basis set               ... on
Rotationally invariant grid construction     ... off

Total number of grid points                  ...   112073
Total number of batches                      ...     1766
Average number of points per batch           ...       63
Average number of grid points per atom       ...     3502
UseSFitting                                  ... on

Time for X-Grid setup             =    1.816 sec

--------------
SCF ITERATIONS
--------------
ITER       Energy         Delta-E        Max-DP      RMS-DP      [F,P]     Damp
               ***  Starting incremental Fock matrix formation  ***
  0  -4591.9977399880   0.000000000000 0.07114188  0.00092012  0.2365869 0.7000
  1  -4592.2723363167  -0.274596328751 0.11335179  0.00092408  0.1558163 0.7000
                               ***Turning on DIIS***
  2  -4592.4286855830  -0.156349266315 0.07995383  0.00057174  0.1090110 0.7000
  3  -4592.5105536530  -0.081868070002 0.11058034  0.00091741  0.0771854 0.0000
  4  -4592.7073899616  -0.196836308574 0.06919449  0.00050065  0.0127835 0.0000
  5  -4592.7133710486  -0.005981087050 0.01197262  0.00010869  0.0127421 0.0000
  6  -4592.7144848621  -0.001113813405 0.00301625  0.00004595  0.0026238 0.0000
  7  -4592.7146967757  -0.000211913600 0.00163757  0.00002300  0.0011941 0.0000
  8  -4592.7147703814  -0.000073605702 0.00116355  0.00001654  0.0016169 0.0000
  9  -4592.7148166704  -0.000046289089 0.00250462  0.00002513  0.0008661 0.0000
               *** Restarting incremental Fock matrix formation ***
                                   *** Resetting DIIS ***
 10  -4592.7148591911  -0.000042520634 0.00149700  0.00001490  0.0009660 0.0000
 11  -4592.7148324246   0.000026766455 0.00042197  0.00000387  0.0025733 0.0000
 12  -4592.7148685820  -0.000036157368 0.00027030  0.00000382  0.0010892 0.0000
 13  -4592.7148754506  -0.000006868569 0.00072484  0.00000573  0.0004237 0.0000
 14  -4592.7148800484  -0.000004597810 0.00027606  0.00000372  0.0002298 0.0000
 15  -4592.7148816395  -0.000001591108 0.00022537  0.00000232  0.0002442 0.0000
 16  -4592.7148821602  -0.000000520734 0.00027759  0.00000221  0.0001131 0.0000
 17  -4592.7148825028  -0.000000342541 0.00012327  0.00000092  0.0000372 0.0000
 18  -4592.7148824950   0.000000007715 0.00003367  0.00000037  0.0000138 0.0000
 19  -4592.7148825265  -0.000000031459 0.00002501  0.00000020  0.0000168 0.0000
                 **** Energy Check signals convergence ****

               *****************************************************
               *                     SUCCESS                       *
               *           SCF CONVERGED AFTER  20 CYCLES          *
               *****************************************************

Old exchange energy                            =    -61.755180067 Eh
New exchange energy                            =    -61.755162099 Eh
Exchange energy change after final integration =      0.000017968 Eh
Total energy after final integration           =  -4592.714864564 Eh
Final COS-X integration done in                =    24.909 sec

----------------
TOTAL SCF ENERGY
----------------

Total Energy       :        -4592.71486456 Eh         -124974.12503 eV

Components:
Nuclear Repulsion  :         3209.93837160 Eh           87346.86372 eV
Electronic Energy  :        -7802.65323617 Eh         -212320.98875 eV
One Electron Energy:       -12783.58991594 Eh         -347859.16643 eV
Two Electron Energy:         4980.93667977 Eh          135538.17768 eV
Max COSX asymmetry :            0.00000104 Eh               0.00003 eV

Virial components:
Potential Energy   :        -9173.67891512 Eh         -249628.49415 eV
Kinetic Energy     :         4580.96405055 Eh          124654.36912 eV
Virial Ratio       :            2.00256514


DFT components:
N(Alpha)           :      117.000035717854 electrons
N(Beta)            :      116.000037031556 electrons
N(Total)           :      233.000072749410 electrons
E(X)               :     -245.465085416637 Eh       
E(C)               :      -10.623120784182 Eh       
E(XC)              :     -256.088206200819 Eh       
DFET-embed. en.    :        0.000000000000 Eh       

---------------
SCF CONVERGENCE
---------------

  Last Energy change         ...   -4.9295e-09  Tolerance :   1.0000e-06
  Last MAX-Density change    ...    0.0000e+00  Tolerance :   1.0000e-05
  Last RMS-Density change    ...    0.0000e+00  Tolerance :   1.0000e-06
  Last DIIS Error            ...    1.3128e-05  Tolerance :   1.0000e-06

             **** THE GBW FILE WAS UPDATED (input_14.gbw) ****
             **** DENSITY input_14.scfp WAS UPDATED ****
             **** ENERGY FILE WAS UPDATED (input_14.en.tmp) ****
----------------------
UHF SPIN CONTAMINATION
----------------------

Warning: in a DFT calculation there is little theoretical justification to 
         calculate <S**2> as in Hartree-Fock theory. We will do it anyways
         but you should keep in mind that the values have only limited relevance

Expectation value of <S**2>     :     0.767119
Ideal value S*(S+1) for S=0.5   :     0.750000
Deviation                       :     0.017119

             **** THE GBW FILE WAS UPDATED (input_14.gbw) ****
             **** DENSITY input_14.scfp WAS UPDATED ****
----------------
ORBITAL ENERGIES
----------------
                 SPIN UP ORBITALS
  NO   OCC          E(Eh)            E(eV) 
   0   1.0000    -196.643067     -5350.9299 
   1   1.0000     -88.678012     -2413.0514 
   2   1.0000     -88.677672     -2413.0421 
   3   1.0000     -88.676204     -2413.0022 
   4   1.0000     -88.675965     -2412.9957 
   5   1.0000     -88.612963     -2411.2813 
   6   1.0000     -88.612942     -2411.2807 
   7   1.0000     -88.612281     -2411.2627 
   8   1.0000     -88.612237     -2411.2616 
   9   1.0000     -22.018606      -599.1567 
  10   1.0000     -18.854367      -513.0534 
  11   1.0000     -18.525428      -504.1025 
  12   1.0000     -18.519707      -503.9469 
  13   1.0000     -18.519606      -503.9441 
  14   1.0000     -10.019312      -272.6394 
  15   1.0000     -10.019036      -272.6318 
  16   1.0000     -10.015440      -272.5340 
  17   1.0000     -10.015372      -272.5321 
  18   1.0000     -10.005583      -272.2658 
  19   1.0000     -10.005541      -272.2646 
  20   1.0000      -9.993138      -271.9271 
  21   1.0000      -9.992969      -271.9225 
  22   1.0000      -9.990865      -271.8653 
  23   1.0000      -9.990838      -271.8645 
  24   1.0000      -7.731410      -210.3824 
  25   1.0000      -7.731072      -210.3732 
  26   1.0000      -7.729920      -210.3418 
  27   1.0000      -7.729663      -210.3348 
  28   1.0000      -7.667906      -208.6543 
  29   1.0000      -7.667899      -208.6542 
  30   1.0000      -7.666163      -208.6069 
  31   1.0000      -7.666090      -208.6049 
  32   1.0000      -5.696737      -155.0161 
  33   1.0000      -5.696406      -155.0071 
  34   1.0000      -5.695104      -154.9716 
  35   1.0000      -5.694838      -154.9644 
  36   1.0000      -5.692659      -154.9051 
  37   1.0000      -5.692313      -154.8957 
  38   1.0000      -5.691411      -154.8712 
  39   1.0000      -5.691171      -154.8646 
  40   1.0000      -5.686200      -154.7294 
  41   1.0000      -5.685859      -154.7201 
  42   1.0000      -5.684605      -154.6860 
  43   1.0000      -5.684350      -154.6790 
  44   1.0000      -5.632668      -153.2727 
  45   1.0000      -5.632662      -153.2725 
  46   1.0000      -5.631113      -153.2304 
  47   1.0000      -5.631052      -153.2287 
  48   1.0000      -5.626338      -153.1004 
  49   1.0000      -5.626333      -153.1003 
  50   1.0000      -5.625842      -153.0869 
  51   1.0000      -5.625832      -153.0867 
  52   1.0000      -5.624764      -153.0576 
  53   1.0000      -5.624688      -153.0555 
  54   1.0000      -5.624012      -153.0372 
  55   1.0000      -5.623923      -153.0347 
  56   1.0000      -2.411372       -65.6168 
  57   1.0000      -1.450245       -39.4632 
  58   1.0000      -1.441772       -39.2326 
  59   1.0000      -1.440389       -39.1950 
  60   1.0000      -0.643111       -17.4999 
  61   1.0000      -0.642873       -17.4935 
  62   1.0000      -0.614456       -16.7202 
  63   1.0000      -0.593666       -16.1545 
  64   1.0000      -0.593218       -16.1423 
  65   1.0000      -0.574955       -15.6453 
  66   1.0000      -0.574396       -15.6301 
  67   1.0000      -0.491542       -13.3755 
  68   1.0000      -0.489697       -13.3253 
  69   1.0000      -0.486787       -13.2461 
  70   1.0000      -0.485490       -13.2109 
  71   1.0000      -0.423029       -11.5112 
  72   1.0000      -0.420198       -11.4342 
  73   1.0000      -0.412065       -11.2128 
  74   1.0000      -0.406849       -11.0709 
  75   1.0000      -0.376152       -10.2356 
  76   1.0000      -0.373034       -10.1508 
  77   1.0000      -0.291723        -7.9382 
  78   1.0000      -0.291392        -7.9292 
  79   1.0000      -0.277722        -7.5572 
  80   1.0000      -0.277394        -7.5483 
  81   1.0000      -0.259823        -7.0701 
  82   1.0000      -0.254796        -6.9334 
  83   1.0000      -0.241728        -6.5778 
  84   1.0000      -0.239077        -6.5056 
  85   1.0000      -0.194941        -5.3046 
  86   1.0000      -0.192018        -5.2251 
  87   1.0000      -0.191640        -5.2148 
  88   1.0000      -0.190942        -5.1958 
  89   1.0000      -0.184631        -5.0241 
  90   1.0000      -0.184220        -5.0129 
  91   1.0000      -0.181042        -4.9264 
  92   1.0000      -0.150999        -4.1089 
  93   1.0000      -0.149952        -4.0804 
  94   1.0000      -0.143725        -3.9109 
  95   1.0000      -0.142984        -3.8908 
  96   1.0000      -0.141470        -3.8496 
  97   1.0000      -0.097845        -2.6625 
  98   1.0000      -0.093532        -2.5451 
  99   1.0000      -0.088069        -2.3965 
 100   1.0000      -0.083136        -2.2622 
 101   1.0000      -0.082516        -2.2454 
 102   1.0000      -0.073772        -2.0074 
 103   1.0000      -0.065267        -1.7760 
 104   1.0000      -0.050660        -1.3785 
 105   1.0000      -0.040679        -1.1069 
 106   1.0000      -0.037097        -1.0095 
 107   1.0000      -0.034658        -0.9431 
 108   1.0000      -0.031213        -0.8494 
 109   1.0000      -0.014842        -0.4039 
 110   1.0000      -0.004971        -0.1353 
 111   1.0000      -0.002407        -0.0655 
 112   1.0000       0.006729         0.1831 
 113   1.0000       0.009950         0.2708 
 114   1.0000       0.016556         0.4505 
 115   1.0000       0.033583         0.9138 
 116   1.0000       0.059983         1.6322 
 117   0.0000       0.187256         5.0955 
 118   0.0000       0.194399         5.2899 
 119   0.0000       0.195716         5.3257 
 120   0.0000       0.196198         5.3388 
 121   0.0000       0.206182         5.6105 
 122   0.0000       0.207017         5.6332 
 123   0.0000       0.215991         5.8774 
 124   0.0000       0.225229         6.1288 
 125   0.0000       0.226863         6.1732 
 126   0.0000       0.231037         6.2868 
 127   0.0000       0.240627         6.5478 
 128   0.0000       0.241711         6.5773 
 129   0.0000       0.242790         6.6066 
 130   0.0000       0.246900         6.7185 
 131   0.0000       0.247239         6.7277 
 132   0.0000       0.252785         6.8786 
 133   0.0000       0.252968         6.8836 
 134   0.0000       0.258338         7.0297 
 135   0.0000       0.260119         7.0782 
 136   0.0000       0.270174         7.3518 
 137   0.0000       0.275954         7.5091 
 138   0.0000       0.276588         7.5264 
 139   0.0000       0.279157         7.5963 
 140   0.0000       0.283192         7.7060 
 141   0.0000       0.286582         7.7983 
 142   0.0000       0.286861         7.8059 
 143   0.0000       0.293527         7.9873 
 144   0.0000       0.306848         8.3498 
 145   0.0000       0.308111         8.3841 
 146   0.0000       0.310637         8.4529 
 147   0.0000       0.319133         8.6841 
 148   0.0000       0.325871         8.8674 
 149   0.0000       0.327997         8.9252 
 150   0.0000       0.347031         9.4432 
 151   0.0000       0.360445         9.8082 
 152   0.0000       0.374577        10.1928 
 153   0.0000       0.375044        10.2055 
 154   0.0000       0.393464        10.7067 
 155   0.0000       0.393813        10.7162 
 156   0.0000       0.395975        10.7750 
 157   0.0000       0.397595        10.8191 
 158   0.0000       0.401066        10.9136 
 159   0.0000       0.411001        11.1839 
 160   0.0000       0.423369        11.5204 
 161   0.0000       0.424631        11.5548 
 162   0.0000       0.425757        11.5854 
 163   0.0000       0.429419        11.6851 
 164   0.0000       0.443760        12.0753 
 165   0.0000       0.450119        12.2484 
 166   0.0000       0.455596        12.3974 
 167   0.0000       0.455778        12.4023 
 168   0.0000       0.459979        12.5167 
 169   0.0000       0.460596        12.5335 
 170   0.0000       0.473547        12.8859 
 171   0.0000       0.474388        12.9088 
 172   0.0000       0.476034        12.9535 
 173   0.0000       0.481862        13.1121 
 174   0.0000       0.493082        13.4174 
 175   0.0000       0.493773        13.4362 
 176   0.0000       0.499215        13.5843 
 177   0.0000       0.500246        13.6124 
 178   0.0000       0.506705        13.7882 
 179   0.0000       0.510305        13.8861 
 180   0.0000       0.511720        13.9246 
 181   0.0000       0.516255        14.0480 
 182   0.0000       0.519820        14.1450 
 183   0.0000       0.522372        14.2145 
 184   0.0000       0.533788        14.5251 
 185   0.0000       0.545204        14.8358 
 186   0.0000       0.550012        14.9666 
 187   0.0000       0.552395        15.0314 
 188   0.0000       0.553906        15.0725 
 189   0.0000       0.555744        15.1226 
 190   0.0000       0.561861        15.2890 
 191   0.0000       0.570691        15.5293 
 192   0.0000       0.572515        15.5789 
 193   0.0000       0.575595        15.6627 
 194   0.0000       0.575705        15.6657 
 195   0.0000       0.582153        15.8412 
 196   0.0000       0.582891        15.8613 
 197   0.0000       0.586166        15.9504 
 198   0.0000       0.589208        16.0332 
 199   0.0000       0.590429        16.0664 
 200   0.0000       0.592226        16.1153 
 201   0.0000       0.595718        16.2103 
 202   0.0000       0.603898        16.4329 
 203   0.0000       0.604409        16.4468 
 204   0.0000       0.613891        16.7048 
 205   0.0000       0.616639        16.7796 
 206   0.0000       0.622936        16.9510 
 207   0.0000       0.625935        17.0326 
 208   0.0000       0.629840        17.1388 
 209   0.0000       0.631529        17.1848 
 210   0.0000       0.637855        17.3569 
 211   0.0000       0.642006        17.4699 
 212   0.0000       0.645400        17.5622 
 213   0.0000       0.649999        17.6874 
 214   0.0000       0.656626        17.8677 
 215   0.0000       0.657055        17.8794 
 216   0.0000       0.657851        17.9010 
 217   0.0000       0.666150        18.1269 
 218   0.0000       0.669332        18.2135 
 219   0.0000       0.673418        18.3246 
 220   0.0000       0.680363        18.5136 
 221   0.0000       0.684086        18.6149 
 222   0.0000       0.692609        18.8468 
 223   0.0000       0.708297        19.2737 
 224   0.0000       0.718454        19.5501 
 225   0.0000       0.722873        19.6704 
 226   0.0000       0.733230        19.9522 
 227   0.0000       0.742296        20.1989 
 228   0.0000       0.752750        20.4834 
 229   0.0000       0.757676        20.6174 
 230   0.0000       0.769180        20.9304 
 231   0.0000       0.772112        21.0102 
 232   0.0000       0.781283        21.2598 
 233   0.0000       0.798937        21.7402 
 234   0.0000       0.801212        21.8021 
 235   0.0000       0.835494        22.7350 
 236   0.0000       0.857445        23.3323 
 237   0.0000       0.863476        23.4964 
 238   0.0000       0.865413        23.5491 
 239   0.0000       0.885627        24.0991 
 240   0.0000       0.888179        24.1686 
 241   0.0000       0.904794        24.6207 
 242   0.0000       0.911653        24.8074 
 243   0.0000       0.915986        24.9252 
 244   0.0000       0.921214        25.0675 
 245   0.0000       0.922114        25.0920 
 246   0.0000       0.931402        25.3447 
 247   0.0000       0.951222        25.8841 
 248   0.0000       0.960307        26.1313 
 249   0.0000       0.971660        26.4402 
 250   0.0000       0.977947        26.6113 
 251   0.0000       0.979524        26.6542 
 252   0.0000       0.981599        26.7107 
 253   0.0000       0.991862        26.9899 
 254   0.0000       0.998098        27.1596 
 255   0.0000       1.000861        27.2348 
 256   0.0000       1.003335        27.3021 
 257   0.0000       1.016526        27.6611 
 258   0.0000       1.024349        27.8740 
 259   0.0000       1.025031        27.8925 
 260   0.0000       1.053608        28.6701 
 261   0.0000       1.056369        28.7453 
 262   0.0000       1.058724        28.8093 
 263   0.0000       1.064486        28.9661 
 264   0.0000       1.082730        29.4626 
 265   0.0000       1.088508        29.6198 
 266   0.0000       1.099738        29.9254 
 267   0.0000       1.114506        30.3273 
 268   0.0000       1.117263        30.4023 
 269   0.0000       1.118118        30.4255 
 270   0.0000       1.123219        30.5643 
 271   0.0000       1.127941        30.6928 
 272   0.0000       1.131012        30.7764 
 273   0.0000       1.135069        30.8868 
 274   0.0000       1.137379        30.9497 
 275   0.0000       1.153285        31.3825 
 276   0.0000       1.155107        31.4320 
 277   0.0000       1.157032        31.4845 
 278   0.0000       1.187029        32.3007 
 279   0.0000       1.190739        32.4016 
 280   0.0000       1.194044        32.4916 
 281   0.0000       1.238214        33.6935 
 282   0.0000       1.238639        33.7051 
 283   0.0000       1.260326        34.2952 
 284   0.0000       1.272754        34.6334 
 285   0.0000       1.288665        35.0664 
 286   0.0000       1.296883        35.2900 
 287   0.0000       1.302296        35.4373 
 288   0.0000       1.321875        35.9701 
 289   0.0000       1.348180        36.6858 
 290   0.0000       1.356535        36.9132 
 291   0.0000       1.358473        36.9659 
 292   0.0000       1.375026        37.4164 
 293   0.0000       1.405092        38.2345 
 294   0.0000       1.407118        38.2896 
 295   0.0000       1.426276        38.8109 
 296   0.0000       1.444248        39.3000 
 297   0.0000       1.447932        39.4002 
 298   0.0000       1.458098        39.6769 
 299   0.0000       1.471057        40.0295 
 300   0.0000       1.471356        40.0376 
 301   0.0000       1.485183        40.4139 
 302   0.0000       1.485900        40.4334 
 303   0.0000       1.491117        40.5754 
 304   0.0000       1.491999        40.5994 
 305   0.0000       1.518161        41.3113 
 306   0.0000       1.522014        41.4161 
 307   0.0000       1.533360        41.7248 
 308   0.0000       1.548564        42.1386 
 309   0.0000       1.551191        42.2101 
 310   0.0000       1.564795        42.5802 
 311   0.0000       1.565593        42.6019 
 312   0.0000       1.601048        43.5667 
 313   0.0000       1.601572        43.5810 
 314   0.0000       1.611526        43.8519 
 315   0.0000       1.618119        44.0313 
 316   0.0000       1.622785        44.1582 
 317   0.0000       1.638566        44.5877 
 318   0.0000       1.666273        45.3416 
 319   0.0000       1.668584        45.4045 
 320   0.0000       1.670881        45.4670 
 321   0.0000       1.676270        45.6136 
 322   0.0000       1.676978        45.6329 
 323   0.0000       1.683065        45.7985 
 324   0.0000       1.700324        46.2682 
 325   0.0000       1.707660        46.4678 
 326   0.0000       1.724839        46.9353 
 327   0.0000       1.737549        47.2811 
 328   0.0000       1.740515        47.3618 
 329   0.0000       1.751956        47.6732 
 330   0.0000       1.757218        47.8163 
 331   0.0000       1.768218        48.1157 
 332   0.0000       1.768762        48.1305 
 333   0.0000       1.792484        48.7760 
 334   0.0000       1.794036        48.8182 
 335   0.0000       1.799432        48.9650 
 336   0.0000       1.808656        49.2160 
 337   0.0000       1.818090        49.4728 
 338   0.0000       1.826104        49.6908 
 339   0.0000       1.839482        50.0549 
 340   0.0000       1.841112        50.0992 
 341   0.0000       1.850832        50.3637 
 342   0.0000       1.852058        50.3970 
 343   0.0000       1.855331        50.4861 
 344   0.0000       1.857349        50.5410 
 345   0.0000       1.878582        51.1188 
 346   0.0000       1.882203        51.2174 
 347   0.0000       1.919754        52.2392 
 348   0.0000       1.929983        52.5175 
 349   0.0000       1.932268        52.5797 
 350   0.0000       1.938106        52.7385 
 351   0.0000       1.946469        52.9661 
 352   0.0000       1.947309        52.9890 
 353   0.0000       1.962966        53.4150 
 354   0.0000       1.964288        53.4510 
 355   0.0000       1.966529        53.5120 
 356   0.0000       1.967120        53.5280 
 357   0.0000       2.010734        54.7148 
 358   0.0000       2.011361        54.7319 
 359   0.0000       2.039215        55.4899 
 360   0.0000       2.050147        55.7873 
 361   0.0000       2.065398        56.2023 
 362   0.0000       2.066601        56.2351 
 363   0.0000       2.070173        56.3323 
 364   0.0000       2.071054        56.3562 
 365   0.0000       2.104124        57.2561 
 366   0.0000       2.107380        57.3447 
 367   0.0000       2.121250        57.7222 
 368   0.0000       2.126722        57.8710 
 369   0.0000       2.147195        58.4282 
 370   0.0000       2.157899        58.7194 
 371   0.0000       2.166597        58.9561 
 372   0.0000       2.168755        59.0148 
 373   0.0000       2.186908        59.5088 
 374   0.0000       2.192311        59.6558 
 375   0.0000       2.202141        59.9233 
 376   0.0000       2.205186        60.0062 
 377   0.0000       2.206438        60.0402 
 378   0.0000       2.213441        60.2308 
 379   0.0000       2.228372        60.6371 
 380   0.0000       2.233072        60.7650 
 381   0.0000       2.238760        60.9198 
 382   0.0000       2.240199        60.9589 
 383   0.0000       2.255958        61.3877 
 384   0.0000       2.278507        62.0013 
 385   0.0000       2.281239        62.0757 
 386   0.0000       2.288777        62.2808 
 387   0.0000       2.290901        62.3386 
 388   0.0000       2.293458        62.4082 
 389   0.0000       2.314587        62.9831 
 390   0.0000       2.319873        63.1269 
 391   0.0000       2.347942        63.8907 
 392   0.0000       2.351963        64.0002 
 393   0.0000       2.352281        64.0088 
 394   0.0000       2.393960        65.1430 
 395   0.0000       2.402491        65.3751 
 396   0.0000       2.405558        65.4586 
 397   0.0000       2.410384        65.5899 
 398   0.0000       2.413854        65.6843 
 399   0.0000       2.441802        66.4448 
 400   0.0000       2.442996        66.4773 
 401   0.0000       2.470558        67.2273 
 402   0.0000       2.472021        67.2671 
 403   0.0000       2.509889        68.2975 
 404   0.0000       2.516667        68.4820 
 405   0.0000       2.522303        68.6354 
 406   0.0000       2.528557        68.8055 
 407   0.0000       2.539558        69.1049 
 408   0.0000       2.548120        69.3379 
 409   0.0000       2.555888        69.5493 
 410   0.0000       2.556004        69.5524 
 411   0.0000       2.580993        70.2324 
 412   0.0000       2.599858        70.7457 
 413   0.0000       2.605493        70.8991 
 414   0.0000       2.621883        71.3451 
 415   0.0000       2.623605        71.3919 
 416   0.0000       2.630569        71.5814 
 417   0.0000       2.637920        71.7814 
 418   0.0000       2.666095        72.5481 
 419   0.0000       2.666860        72.5690 
 420   0.0000       2.677842        72.8678 
 421   0.0000       2.679820        72.9216 
 422   0.0000       2.701283        73.5057 
 423   0.0000       2.702235        73.5316 
 424   0.0000       2.751311        74.8670 
 425   0.0000       2.754064        74.9419 
 426   0.0000       2.775888        75.5358 
 427   0.0000       2.777341        75.5753 
 428   0.0000       2.797249        76.1170 
 429   0.0000       2.808417        76.4209 
 430   0.0000       2.816091        76.6297 
 431   0.0000       2.817490        76.6678 
 432   0.0000       2.848249        77.5048 
 433   0.0000       2.849716        77.5447 
 434   0.0000       2.864590        77.9495 
 435   0.0000       2.866602        78.0042 
 436   0.0000       2.899949        78.9116 
 437   0.0000       2.906506        79.0901 
 438   0.0000       2.911516        79.2264 
 439   0.0000       2.916169        79.3530 
 440   0.0000       2.916573        79.3640 
 441   0.0000       2.932133        79.7874 
 442   0.0000       2.933970        79.8374 
 443   0.0000       2.960544        80.5605 
 444   0.0000       2.978068        81.0374 
 445   0.0000       3.022644        82.2503 
 446   0.0000       3.037351        82.6505 
 447   0.0000       3.042736        82.7970 
 448   0.0000       3.047542        82.9278 
 449   0.0000       3.052966        83.0754 
 450   0.0000       3.054073        83.1055 
 451   0.0000       3.180950        86.5580 
 452   0.0000       3.182842        86.6095 
 453   0.0000       3.325552        90.4929 
 454   0.0000       3.325996        90.5050 
 455   0.0000       3.393135        92.3319 
 456   0.0000       3.400449        92.5309 
 457   0.0000       3.437059        93.5271 
 458   0.0000       3.443857        93.7121 
 459   0.0000       3.470448        94.4357 
 460   0.0000       3.471358        94.4605 
 461   0.0000       3.514342        95.6301 
 462   0.0000       3.515235        95.6544 
 463   0.0000       3.537944        96.2723 
 464   0.0000       3.538988        96.3008 
 465   0.0000       3.567221        97.0690 
 466   0.0000       3.568897        97.1146 
 467   0.0000       3.581671        97.4622 
 468   0.0000       3.582246        97.4779 
 469   0.0000       3.800393       103.4140 
 470   0.0000       3.846500       104.6686 
 471   0.0000       3.856578       104.9428 
 472   0.0000       4.005652       108.9993 
 473   0.0000       4.209064       114.5345 
 474   0.0000       4.540436       123.5515 
 475   0.0000       4.557962       124.0285 
 476   0.0000       4.560572       124.0995 
 477   0.0000       4.584971       124.7634 
 478   0.0000       4.609178       125.4221 
 479   0.0000       4.609567       125.4327 
 480   0.0000       5.124741       139.4513 
 481   0.0000       7.006722       190.6626 
 482   0.0000       7.050431       191.8520 
 483   0.0000       7.054218       191.9550 
 484   0.0000      18.714498       509.2474 
 485   0.0000      18.756104       510.3795 
 486   0.0000      18.989485       516.7301 
 487   0.0000      19.017290       517.4868 
 488   0.0000      19.040325       518.1136 
 489   0.0000      19.052288       518.4391 
 490   0.0000      19.243364       523.6386 
 491   0.0000      19.321096       525.7538 
 492   0.0000      19.754540       537.5484 
 493   0.0000      21.671644       589.7154 
 494   0.0000      21.704230       590.6021 
[...]
Total number of batches                      ...      237
Average number of points per batch           ...       59
Average number of grid points per atom       ...      437

Memory available               ... 849.8 MB
Memory needed per perturbation ...  34.9 MB
Perturbations treated per batch... 3
Number of batches              ... 1
     CP-SCF ITERATION   0:   4.2741e-02 (   5.5 sec   0/  3 done)
     CP-SCF ITERATION   1:   1.3987e-03 (   5.6 sec   0/  3 done)
     CP-SCF ITERATION   2:   4.0831e-04 (   5.6 sec   3/  3 done)
                    *** THE CP-SCF HAS CONVERGED ***

Forming final perturbed densities           ... done
Transforming perturbed density to AO basis  ... done

 Raw HFC matrix (all values in MHz): 
 -----------------------------------
                -0.4659               0.0711              -0.2461
                 0.0706              -0.3596              -0.4353
                -0.2460              -0.4361               0.5451

 A(FC)          -0.0927              -0.0927              -0.0927
 A(SD)          -0.4094              -0.4639               0.8733
 A(ORB+DIA)      0.0025               0.0027              -0.0074    A(PC) =  -0.0007
 A(ORB)          0.0025               0.0028              -0.0075    A(PC) =  -0.0008
 A(DIA)         -0.0000              -0.0001               0.0002    A(PC) =   0.0000
             ----------           ----------           ----------
 A(Tot)         -0.4996              -0.5539               0.7732    A(iso)=   -0.0934
 Orientation: 
  X           0.7943240            0.5730806           -0.2015638
  Y          -0.6040579            0.7098464           -0.3622599
  Z          -0.0645248            0.4095079            0.9100219

Notes:  (1) The A matrix conforms to the "SAI" spin Hamiltonian convention.
        (2) Tensor is right-handed.

 Raw EFG matrix (all values in a.u.**-3):
 -----------------------------------
             0.1485      -0.1815       0.0496
            -0.1815      -0.0177      -0.0314
             0.0496      -0.0314      -0.1308

 V(El)       0.6081       0.4484      -1.0565
 V(Nuc)     -0.7423      -0.5878       1.3301
         ----------   ----------   ----------
 V(Tot)     -0.1342      -0.1394       0.2736 
 Orientation: 
  X       0.5311307   -0.1559010    0.8328236
  Y       0.8448121    0.0223259   -0.5345970
  Z       0.0647507    0.9875203    0.1435650

Note: Tensor is right-handed


 Quadrupole tensor eigenvalues (in MHz;Q= 0.0029 I=  1.0)
  e**2qQ            =     0.183690 MHz 
  e**2qQ/(4I*(2I-1))=     0.045923 MHz 
  eta               =     0.018994
  NOTE: the diagonal representation of the SH term I*Q*I = e**2qQ/(4I(2I-1))*[-(1-eta),-(1+eta),2]

 RHO(0)=      0.437508075 a.u.**-3

 -----------------------------------------------------------
 Nucleus  31H : A:ISTP=    1 I=  0.5 P=533.5514 MHz/au**3
                Q:ISTP=    2 I=  1.0 Q=  0.0029 barn     
 -----------------------------------------------------------
 Solving for nuclear perturbation:
Forming RHS of the CP-SCF equations         ... 
Calc. nucleus orbit integrals (SHARK)       ... done

------------------------------------------------------------------------------
                           ORCA CP-SCF CALCULATION
------------------------------------------------------------------------------

Input orbitals are from        ... input_14.gbw
Input Perturbation             ... input_14.pin.tmp
Wavefunction output            ... input_14.pout.tmp
Perturbation mode              ... Imaginary perturbation
Solver                         ... POPLE
Max. number of iterations      ... 64
Convergence tolerance          ... 1.000e-03
Integral handling              ... Direct
DFT GridXC                     ... 1
COSX GridX                     ... 1
COSX IntAccX                   ... 3.067
COSX Algorithm                 ... Auto
Number of perturbations        ... 3
Number of operators            ... 2
Orbital ranges used for CP-SCF:
 Operator 0:  Orbitals   0...116  to 117...516
 Operator 1:  Orbitals   0...115  to 116...516
Variables per perturbation     ... 93316
DFT calculation                         ... on
XC functional terms                     ... off
Hybrid DFT                              ... on
   Exchange mixing (SCF)                ...  0.200
   Exchange mixing (CP-SCF)             ...  0.200
   GGA exch. scaling(SCF)               ...  0.720
   GGA exch. scaling (CP-SCF)           ...  0.720
   GGA corr. scaling (SCF)              ...  0.810
   GGA corr. scaling (CP-SCF)           ...  0.810

CP-SCF GRID
-----------

General Integration Accuracy     IntAcc      ... 3.467
Radial Grid Type                 RadialGrid  ... OptM3 with GC (2021)
Angular Grid (max. ang.)         AngularGrid ... 1 (Lebedev-50)
Angular grid pruning method      GridPruning ... 4 (adaptive)
Weight generation scheme         WeightScheme... Becke
Basis function cutoff            BFCut       ... 1.0000e-10
Integration weight cutoff        WCut        ... 1.0000e-14
Angular grids for H and He will be reduced by one unit
Partially contracted basis set               ... off
Rotationally invariant grid construction     ... off

Total number of grid points                  ...    31452
Total number of batches                      ...      507
Average number of points per batch           ...       62
Average number of grid points per atom       ...      983

CP-SCF GRIDX
------------

General Integration Accuracy     IntAcc      ... 3.067
Radial Grid Type                 RadialGrid  ... OptM3 with GC (2021)
Angular Grid (max. ang.)         AngularGrid ... 1 (Lebedev-50)
Angular grid pruning method      GridPruning ... 4 (adaptive)
Weight generation scheme         WeightScheme... Becke
Basis function cutoff            BFCut       ... 1.0000e-10
Integration weight cutoff        WCut        ... 1.0000e-14
Angular grids for H and He will be reduced by one unit
Partially contracted basis set               ... on
Rotationally invariant grid construction     ... off

Total number of grid points                  ...    13995
Total number of batches                      ...      237
Average number of points per batch           ...       59
Average number of grid points per atom       ...      437

Memory available               ... 846.7 MB
Memory needed per perturbation ...  34.9 MB
Perturbations treated per batch... 3
Number of batches              ... 1
     CP-SCF ITERATION   0:   4.2247e-02 (   5.5 sec   0/  3 done)
     CP-SCF ITERATION   1:   1.3371e-03 (   5.6 sec   1/  3 done)
     CP-SCF ITERATION   2:   2.2881e-04 (   4.5 sec   3/  3 done)
                    *** THE CP-SCF HAS CONVERGED ***

Forming final perturbed densities           ... done
Transforming perturbed density to AO basis  ... done

 Raw HFC matrix (all values in MHz): 
 -----------------------------------
                -0.2023              -0.0074               0.0286
                -0.0077              -0.0935              -0.2479
                 0.0283              -0.2484               0.4591

 A(FC)           0.0547               0.0547               0.0547
 A(SD)          -0.2442              -0.2605               0.5047
 A(ORB+DIA)      0.0015               0.0017              -0.0041    A(PC) =  -0.0003
 A(ORB)          0.0016               0.0017              -0.0042    A(PC) =  -0.0003
 A(DIA)         -0.0001              -0.0000               0.0001    A(PC) =  -0.0000
             ----------           ----------           ----------
 A(Tot)         -0.1880              -0.2041               0.5553    A(iso)=    0.0544
 Orientation: 
  X           0.2101077            0.9769087           -0.0387833
  Y           0.9159756           -0.1828233            0.3571616
  Z           0.3418238           -0.1105670           -0.9332371

Notes:  (1) The A matrix conforms to the "SAI" spin Hamiltonian convention.
        (2) Tensor is right-handed.

 Raw EFG matrix (all values in a.u.**-3):
 -----------------------------------
            -0.1089       0.0171       0.1068
             0.0171      -0.1339       0.0425
             0.1068       0.0425       0.2427

 V(El)       0.5160       0.8218      -1.3377
 V(Nuc)     -0.6498      -0.9656       1.6154
         ----------   ----------   ----------
 V(Tot)     -0.1338      -0.1438       0.2777 
 Orientation: 
  X       0.6649374    0.6967098   -0.2691724
  Y       0.6974409   -0.7081452   -0.1100304
  Z      -0.2672724   -0.1145685   -0.9567860

Note: Tensor is right-handed


 Quadrupole tensor eigenvalues (in MHz;Q= 0.0029 I=  1.0)
  e**2qQ            =     0.186455 MHz 
  e**2qQ/(4I*(2I-1))=     0.046614 MHz 
  eta               =     0.036052
  NOTE: the diagonal representation of the SH term I*Q*I = e**2qQ/(4I(2I-1))*[-(1-eta),-(1+eta),2]

 RHO(0)=      0.440230918 a.u.**-3

 -----------------------------------------------------------
 Nucleus   0V : A:ISTP=   51 I=  3.5 P=140.5173 MHz/au**3
                Q:ISTP=   51 I=  3.5 Q= -0.0430 barn     
 -----------------------------------------------------------
 Solving for nuclear perturbation:
Forming RHS of the CP-SCF equations         ... 
Calc. nucleus orbit integrals (SHARK)       ... done

------------------------------------------------------------------------------
                           ORCA CP-SCF CALCULATION
------------------------------------------------------------------------------

Input orbitals are from        ... input_14.gbw
Input Perturbation             ... input_14.pin.tmp
Wavefunction output            ... input_14.pout.tmp
Perturbation mode              ... Imaginary perturbation
Solver                         ... POPLE
Max. number of iterations      ... 64
Convergence tolerance          ... 1.000e-03
Integral handling              ... Direct
DFT GridXC                     ... 1
COSX GridX                     ... 1
COSX IntAccX                   ... 3.067
COSX Algorithm                 ... Auto
Number of perturbations        ... 3
Number of operators            ... 2
Orbital ranges used for CP-SCF:
 Operator 0:  Orbitals   0...116  to 117...516
 Operator 1:  Orbitals   0...115  to 116...516
Variables per perturbation     ... 93316
DFT calculation                         ... on
XC functional terms                     ... off
Hybrid DFT                              ... on
   Exchange mixing (SCF)                ...  0.200
   Exchange mixing (CP-SCF)             ...  0.200
   GGA exch. scaling(SCF)               ...  0.720
   GGA exch. scaling (CP-SCF)           ...  0.720
   GGA corr. scaling (SCF)              ...  0.810
   GGA corr. scaling (CP-SCF)           ...  0.810

CP-SCF GRID
-----------

General Integration Accuracy     IntAcc      ... 3.467
Radial Grid Type                 RadialGrid  ... OptM3 with GC (2021)
Angular Grid (max. ang.)         AngularGrid ... 1 (Lebedev-50)
Angular grid pruning method      GridPruning ... 4 (adaptive)
Weight generation scheme         WeightScheme... Becke
Basis function cutoff            BFCut       ... 1.0000e-10
Integration weight cutoff        WCut        ... 1.0000e-14
Angular grids for H and He will be reduced by one unit
Partially contracted basis set               ... off
Rotationally invariant grid construction     ... off

Total number of grid points                  ...    31452
Total number of batches                      ...      507
Average number of points per batch           ...       62
Average number of grid points per atom       ...      983

CP-SCF GRIDX
------------

General Integration Accuracy     IntAcc      ... 3.067
Radial Grid Type                 RadialGrid  ... OptM3 with GC (2021)
Angular Grid (max. ang.)         AngularGrid ... 1 (Lebedev-50)
Angular grid pruning method      GridPruning ... 4 (adaptive)
Weight generation scheme         WeightScheme... Becke
Basis function cutoff            BFCut       ... 1.0000e-10
Integration weight cutoff        WCut        ... 1.0000e-14
Angular grids for H and He will be reduced by one unit
Partially contracted basis set               ... on
Rotationally invariant grid construction     ... off

Total number of grid points                  ...    13995
Total number of batches                      ...      237
Average number of points per batch           ...       59
Average number of grid points per atom       ...      437

Memory available               ... 843.5 MB
Memory needed per perturbation ...  34.9 MB
Perturbations treated per batch... 3
Number of batches              ... 1
     CP-SCF ITERATION   0:   1.2231e+01 (   5.9 sec   0/  3 done)
     CP-SCF ITERATION   1:   1.9715e+00 (   5.7 sec   0/  3 done)
     CP-SCF ITERATION   2:   3.5895e-01 (   5.7 sec   0/  3 done)
     CP-SCF ITERATION   3:   5.3763e-02 (   5.6 sec   0/  3 done)
     CP-SCF ITERATION   4:   1.3693e-02 (   5.7 sec   0/  3 done)
     CP-SCF ITERATION   5:   2.7109e-03 (   5.7 sec   0/  3 done)
     CP-SCF ITERATION   6:   4.1923e-04 (   5.7 sec   3/  3 done)
                    *** THE CP-SCF HAS CONVERGED ***

Forming final perturbed densities           ... done
Transforming perturbed density to AO basis  ... done

 Raw HFC matrix (all values in MHz): 
 -----------------------------------
              -317.8489             -47.3312              93.2663
               -47.0472             -79.5585              27.8471
                93.6218              28.0341            -105.7485

 A(FC)        -156.3740            -156.3740            -156.3740
 A(SD)         102.5462              85.5035            -188.0497
 A(ORB+DIA)     -6.7222              -8.3019             -19.0100    A(PC) = -11.3447
 A(ORB)         -6.7218              -8.3024             -19.0099    A(PC) = -11.3447
 A(DIA)         -0.0004               0.0005              -0.0001    A(PC) =  -0.0000
             ----------           ----------           ----------
 A(Tot)        -60.5500             -79.1723            -363.4336    A(iso)= -167.7186
 Orientation: 
  X          -0.1119419           -0.3830143            0.9169346
  Y          -0.7264290            0.6611707            0.1874943
  Z          -0.6780633           -0.6450995           -0.3522454

Notes:  (1) The A matrix conforms to the "SAI" spin Hamiltonian convention.
        (2) Tensor is right-handed.

 Raw EFG matrix (all values in a.u.**-3):
 -----------------------------------
             0.1702      -0.0650      -0.3134
            -0.0650      -0.1900       0.0528
            -0.3134       0.0528       0.0198

 V(El)      -0.2492      -0.3496       0.5988
 V(Nuc)      0.0479       0.1223      -0.1702
         ----------   ----------   ----------
 V(Tot)     -0.2013      -0.2274       0.4286 
 Orientation: 
  X       0.1339111   -0.6137476   -0.7780628
  Y       0.9899032    0.0460270    0.1340638
  Z      -0.0464694   -0.7881595    0.6137142

Note: Tensor is right-handed


 Quadrupole tensor eigenvalues (in MHz;Q=-0.0430 I=  3.5)
  e**2qQ            =    -4.330770 MHz 
  e**2qQ/(4I*(2I-1))=    -0.051557 MHz 
  eta               =     0.060807
  NOTE: the diagonal representation of the SH term I*Q*I = e**2qQ/(4I(2I-1))*[-(1-eta),-(1+eta),2]

 RHO(0)=   8115.179625741 a.u.**-3


--------------------------------------------------------------------------------
----------------------------------------------------------------------------
                           ORCA EULER ANGLE PROGRAM
----------------------------------------------------------------------------

Only g-tensor available        -->  using g-tensor as reference tensor

Reference tensor               ...  g

g-tensor ordering              ...  |g_min> --> |gx>
                                    |g_mid> --> |gy>
                                    |g_max> --> |gz>

A- and EFG-tensor ordering     ...  the axes |Ax>, |Qx>, |Ay>, etc. are assigned
                                    such that the Euler rotation is minimal. You
                                    can find the respective eigenvalues as Ax,
                                    EFGx, Ay, etc. in the tables below.
                                    The relation of |Ax>, |Ay>,  etc. to Amin, Amid, etc.
                                    (as printed in the ORCA EPR/NMR CALCULATION Output)
                                    is obtained in the detailed printout.

Euler rotation around          ...  z - y - z
   First rotation              -->  by alpha around z
   Second rotation             -->  by beta around y'
   Third rotation              -->  by gamma around z''
   Positive / Negative angle   -->  clockwise / counterclockwise rotation

Plot EFG-tensors                    (-)
Plot HFC-tensors                    (-)
Detailed Printout                   (-)

-------------------------------------------------------------------------
          Euler rotation of hyperfine tensor to g-tensor
-------------------------------------------------------------------------

-------------------------------------------------------------------
 Atom  |   Alpha    Beta    Gamma   |   Ax       Ay       Az 
       |          [degrees]         |           [MHz]         
-------------------------------------------------------------------
 19H      144.3     15.4    172.5      -0.53     1.00    -0.56
 20H       66.6     16.5    -98.1      -0.33     0.46    -0.32
 21H      -73.6      3.9     40.8      -0.15     0.44    -0.14
 22H     -177.6     41.1    159.2      -0.23     0.45    -0.22
 23H      -81.9     22.7     57.7      -0.21     0.55    -0.20
 24H      -39.4     31.7     -3.0      -0.50     0.78    -0.56
 26H      -67.0     15.8     98.0      -0.33     0.46    -0.32
 27H     -150.2     17.2   -167.1      -0.53     1.00    -0.56
 28H      176.6     43.4   -158.9      -0.23     0.45    -0.22
 29H       13.7     18.8     19.5      -0.14     0.45    -0.14
 30H       42.6     30.7     -0.5      -0.50     0.77    -0.55
 31H       77.9     23.8    -53.6      -0.20     0.56    -0.19
  0V      102.2      1.3   -102.1    -363.43   -79.17   -60.55
-------------------------------------------------------------------


-------------------------------------------------------------------------------
    Euler rotation of Electric Field Gradient (EFG) tensor to g-tensor
-------------------------------------------------------------------------------

-------------------------------------------------------------------
 Atom  |   Alpha    Beta    Gamma  |   EFGx     EFGy     EFGz
       |          [degrees]        |         [a.u.**-3]       
-------------------------------------------------------------------
 19H      168.0     41.8   -142.8     -0.14     0.27    -0.14
 20H      -16.7     42.0     46.4     -0.14    -0.14     0.28
 21H       24.2      8.9     -5.3      0.28    -0.14    -0.14
 22H       73.4      8.5    -38.6     -0.15     0.28    -0.14
 23H      128.5     40.0    -97.6     -0.14    -0.15     0.28
 24H      165.5     47.6   -132.4     -0.14     0.28    -0.14
 26H       18.0     42.4    -47.5     -0.14    -0.14     0.28
 27H     -170.0     43.0    144.4     -0.14     0.27    -0.13
 28H      -71.2      7.7     36.4     -0.15     0.28    -0.14
 29H      -17.1      8.5     -1.8      0.28    -0.14    -0.14
 30H     -166.0     47.3    131.9     -0.13     0.27    -0.14
 31H     -128.5     39.4     96.7     -0.13    -0.14     0.28
  0V       54.3     46.4    -63.6      0.43    -0.23    -0.20
-------------------------------------------------------------------


Maximum memory used throughout the entire EPRNMR-calculation: 245.0 MB

Timings for individual modules:

Sum of individual times         ...     2598.477 sec (=  43.308 min)
GTO integral calculation        ...        1.321 sec (=   0.022 min)   0.1 %
Spin-Orbit-Coupling Matrices    ...       11.022 sec (=   0.184 min)   0.4 %
SCF iterations                  ...      230.363 sec (=   3.839 min)   8.9 %
EPR/NMR calculation             ...     2355.771 sec (=  39.263 min)  90.7 %
                             ****ORCA TERMINATED NORMALLY****
TOTAL RUN TIME: 0 days 0 hours 43 minutes 19 seconds 697 msec
