
                                 *****************
                                 * O   R   C   A *
                                 *****************

                                            #,                                       
                                            ###                                      
                                            ####                                     
                                            #####                                    
                                            ######                                   
                                           ########,                                 
                                     ,,################,,,,,                         
                               ,,#################################,,                 
                          ,,##########################################,,             
                       ,#########################################, ''#####,          
                    ,#############################################,,   '####,        
                  ,##################################################,,,,####,       
                ,###########''''           ''''###############################       
              ,#####''   ,,,,##########,,,,          '''####'''          '####       
            ,##' ,,,,###########################,,,                        '##       
           ' ,,###''''                  '''############,,,                           
         ,,##''                                '''############,,,,        ,,,,,,###''
      ,#''                                            '''#######################'''  
     '                                                          ''''####''''         
             ,#######,   #######,   ,#######,      ##                                
            ,#'     '#,  ##    ##  ,#'     '#,    #''#        ######   ,####,        
            ##       ##  ##   ,#'  ##            #'  '#       #        #'  '#        
            ##       ##  #######   ##           ,######,      #####,   #    #        
            '#,     ,#'  ##    ##  '#,     ,#' ,#      #,         ##   #,  ,#        
             '#######'   ##     ##  '#######'  #'      '#     #####' # '####'        



                  #######################################################
                  #                        -***-                        #
                  #          Department of theory and spectroscopy      #
                  #    Directorship and core code : Frank Neese         #
                  #        Max Planck Institute fuer Kohlenforschung    #
                  #                Kaiser Wilhelm Platz 1               #
                  #                 D-45470 Muelheim/Ruhr               #
                  #                      Germany                        #
                  #                                                     #
                  #                  All rights reserved                #
                  #                        -***-                        #
                  #######################################################


                         Program Version 5.0.4 -  RELEASE  -


 With contributions from (in alphabetic order):
   Daniel Aravena         : Magnetic Suceptibility
   Michael Atanasov       : Ab Initio Ligand Field Theory (pilot matlab implementation)
   Alexander A. Auer      : GIAO ZORA, VPT2 properties, NMR spectrum
   Ute Becker             : Parallelization
   Giovanni Bistoni       : ED, misc. LED, open-shell LED, HFLD
   Martin Brehm           : Molecular dynamics
   Dmytro Bykov           : SCF Hessian
   Vijay G. Chilkuri      : MRCI spin determinant printing, contributions to CSF-ICE
   Dipayan Datta          : RHF DLPNO-CCSD density
   Achintya Kumar Dutta   : EOM-CC, STEOM-CC
   Dmitry Ganyushin       : Spin-Orbit,Spin-Spin,Magnetic field MRCI
   Miquel Garcia          : C-PCM and meta-GGA Hessian, CC/C-PCM, Gaussian charge scheme
   Yang Guo               : DLPNO-NEVPT2, F12-NEVPT2, CIM, IAO-localization
   Andreas Hansen         : Spin unrestricted coupled pair/coupled cluster methods
   Benjamin Helmich-Paris : MC-RPA, TRAH-SCF, COSX integrals
   Lee Huntington         : MR-EOM, pCC
   Robert Izsak           : Overlap fitted RIJCOSX, COSX-SCS-MP3, EOM
   Marcus Kettner         : VPT2
   Christian Kollmar      : KDIIS, OOCD, Brueckner-CCSD(T), CCSD density, CASPT2, CASPT2-K
   Simone Kossmann        : Meta GGA functionals, TD-DFT gradient, OOMP2, MP2 Hessian
   Martin Krupicka        : Initial AUTO-CI
   Lucas Lang             : DCDCAS
   Marvin Lechner         : AUTO-CI (C++ implementation), FIC-MRCC
   Dagmar Lenk            : GEPOL surface, SMD
   Dimitrios Liakos       : Extrapolation schemes; Compound Job, initial MDCI parallelization
   Dimitrios Manganas     : Further ROCIS development; embedding schemes
   Dimitrios Pantazis     : SARC Basis sets
   Anastasios Papadopoulos: AUTO-CI, single reference methods and gradients
   Taras Petrenko         : DFT Hessian,TD-DFT gradient, ASA, ECA, R-Raman, ABS, FL, XAS/XES, NRVS
   Peter Pinski           : DLPNO-MP2, DLPNO-MP2 Gradient
   Christoph Reimann      : Effective Core Potentials
   Marius Retegan         : Local ZFS, SOC
   Christoph Riplinger    : Optimizer, TS searches, QM/MM, DLPNO-CCSD(T), (RO)-DLPNO pert. Triples
   Tobias Risthaus        : Range-separated hybrids, TD-DFT gradient, RPA, STAB
   Michael Roemelt        : Original ROCIS implementation
   Masaaki Saitow         : Open-shell DLPNO-CCSD energy and density
   Barbara Sandhoefer     : DKH picture change effects
   Avijit Sen             : IP-ROCIS
   Kantharuban Sivalingam : CASSCF convergence, NEVPT2, FIC-MRCI
   Bernardo de Souza      : ESD, SOC TD-DFT
   Georgi Stoychev        : AutoAux, RI-MP2 NMR, DLPNO-MP2 response
   Willem Van den Heuvel  : Paramagnetic NMR
   Boris Wezisla          : Elementary symmetry handling
   Frank Wennmohs         : Technical directorship


 We gratefully acknowledge several colleagues who have allowed us to
 interface, adapt or use parts of their codes:
   Stefan Grimme, W. Hujo, H. Kruse, P. Pracht,  : VdW corrections, initial TS optimization,
                  C. Bannwarth, S. Ehlert          DFT functionals, gCP, sTDA/sTD-DF
   Ed Valeev, F. Pavosevic, A. Kumar             : LibInt (2-el integral package), F12 methods
   Garnet Chan, S. Sharma, J. Yang, R. Olivares  : DMRG
   Ulf Ekstrom                                   : XCFun DFT Library
   Mihaly Kallay                                 : mrcc  (arbitrary order and MRCC methods)
   Jiri Pittner, Ondrej Demel                    : Mk-CCSD
   Frank Weinhold                                : gennbo (NPA and NBO analysis)
   Christopher J. Cramer and Donald G. Truhlar   : smd solvation model
   Lars Goerigk                                  : TD-DFT with DH, B97 family of functionals
   V. Asgeirsson, H. Jonsson                     : NEB implementation
   FAccTs GmbH                                   : IRC, NEB, NEB-TS, DLPNO-Multilevel, CI-OPT
                                                   MM, QMMM, 2- and 3-layer-ONIOM, Crystal-QMMM,
                                                   LR-CPCM, SF, NACMEs, symmetry and pop. for TD-DFT,
                                                   nearIR, NL-DFT gradient (VV10), updates on ESD,
                                                   ML-optimized integration grids
   S Lehtola, MJT Oliveira, MAL Marques          : LibXC Library
   Liviu Ungur et al                             : ANISO software


 Your calculation uses the libint2 library for the computation of 2-el integrals
 For citations please refer to: http://libint.valeyev.net

 Your ORCA version has been built with support for libXC version: 5.1.0
 For citations please refer to: https://tddft.org/programs/libxc/

 This ORCA versions uses:
   CBLAS   interface :  Fast vector & matrix operations
   LAPACKE interface :  Fast linear algebra routines
   SCALAPACK package :  Parallel linear algebra routines
   Shared memory     :  Shared parallel matrices
   BLAS/LAPACK       :  OpenBLAS 0.3.15  USE64BITINT DYNAMIC_ARCH NO_AFFINITY Prescott SINGLE_THREADED
        Core in use  :  Prescott
   Copyright (c) 2011-2014, The OpenBLAS Project


================================================================================

----- Orbital basis set information -----
Your calculation utilizes the basis: TZVP 

The basis set includes element-specific modifications.

Your calculation utilizes the basis: CP(PPP) 

----- AuxJ basis set information -----
Your calculation utilizes the auxiliary basis: def2/J
   F. Weigend, Phys. Chem. Chem. Phys. 8, 1057 (2006).

================================================================================
                                        WARNINGS
                       Please study these warnings very carefully!
================================================================================


WARNING: your system is open-shell and RHF/RKS was chosen
  ===> : WILL SWITCH to UHF/UKS


INFO   : the flag for use of the SHARK integral package has been found!

================================================================================
                                       INPUT FILE
================================================================================
NAME = input_61.inp
|  1> ! nofrozencore ReducedPop printbasis
|  2> ! B3LYP TZVP
|  3> 
|  4> %basis
|  5> newgto V "CP(PPP)" end
|  6> end
|  7> 
|  8> %pal
|  9> nprocs 4
| 10> end
| 11> 
| 12> % sym SymThresh 1e-2 end
| 13> * xyz -2 2 
| 14> V 0.5956700288343124 -0.9221309189078781 0.1974380890143572
| 15> S -1.7165708680574108 -1.609168786112749 -0.2340136729937959
| 16> S 0.7155953018284243 -0.4455466612708889 -2.201642112096662
| 17> S -0.329100184848177 -0.1501069452089989 2.33024043377672
| 18> S 2.1214570910557016 0.9887267046431517 0.3666495862972892
| 19> O 1.4435108399161505 -2.245062692275632 0.48072058125865547
| 20> C 2.1142731494006286 0.624349191362912 -2.3580376161681618
| 21> C 2.7000087333518876 1.2233552416032791 -1.2876520543902052
| 22> C -2.4782378948558073 -1.5576783879204106 1.3582851124463253
| 23> C -1.9017313304854437 -0.9562002084040263 2.43249892649106
| 24> S 2.684267820170881 0.8816868164435101 -4.050925155601714
| 25> S 4.104663769186129 2.3436178917464034 -1.4463441905904904
| 26> S -2.6921499665184383 -0.872470699184778 4.044553207890928
| 27> S -4.104317781208624 -2.351234690096816 1.444400499717802
| 28> C 3.3793152169426186 3.7963367175484386 -2.3236073024968324
| 29> C -4.097997983571138 0.2529502694530305 3.7587405993406255
| 30> C 2.272757914115859 2.656442383190309 -4.362522196474755
| 31> C -5.250669529916189 -0.9062691907861751 1.7546619013004938
| 32> C 3.276383474150265 3.6808116877747166 -3.8488156794838946
| 33> H 1.2788056569338342 2.823741080226972 -3.942685022954362
| 34> H 2.1920110597671383 2.7134687961424566 -5.45262132370842
| 35> H 2.993983669045633 4.678272289411336 -4.22376654528444
| 36> H 4.261775469247252 3.4499260283570163 -4.2678833225059165
| 37> H 4.02671195676629 4.6463924353277 -2.0839522862287234
| 38> H 2.3981150170512864 3.9930528158160308 -1.8854512111679718
| 39> C -5.395724357884026 -0.44387941622303023 3.123568253483749
| 40> H -6.051241550201804 -1.5084880786638621 1.1879821216875537
| 41> H -4.8217823353281775 -0.2130780496551234 1.0154215506642108
| 42> H -5.760987918196523 -1.348462209515465 3.644324138843764
| 43> H -6.055912628171136 0.46017661934371357 3.446609519987978
| 44> H -3.905605584898608 1.121247201687617 3.0961839447283306
| 45> H -4.686372644631605 0.7398928520433381 4.629813075924096
| 46> * 
| 47> 
| 48> % eprnmr
| 49> gtensor true
| 50> Nuclei = all H {aiso,adip,aorb,fgrad,rho}
| 51> Nuclei = all V {aiso,adip,aorb,fgrad,rho}
| 52> end
| 53> 
| 54>                          ****END OF INPUT****
================================================================================

------------------------------------------------------------------------------
                            SYMMETRY HANDLING SETUP
------------------------------------------------------------------------------

------------------
SYMMETRY DETECTION
------------------
The point group will now be determined using a tolerance of 1.0000e-02.
Splitting atom subsets according to nuclear charge, mass and basis set.
Splitting atom subsets according to distance from the molecule's center.
Identifying relative distance patterns of the atoms.
Splitting atom subsets according to atoms' relative distance patterns.
Bring atoms of each subset into input order.
The molecule is neither linear nor planar.
There is at least one atom subset not centered around the molecule's center.
The molecule does not have a center of inversion.
Analyzing the first atom subset for its symmetry.
The atom subset represents a 4-gon with alternating side lengths
that is not centered around the molecule's center.
Testing point group C2v.
Test failed.
Testing point group C2.
Test failed.
Testing point group Cs.
Test failed.
Testing point group Cs.
Test failed.
No testing is needed for point group C1.
This point group has been found:    C1
Largest non-degenerate subgroup:    C1


Mass-centered symmetry-perfected Cartesians (point group C1):

Atom          Symmetry-perfected Cartesians (x, y, z; au)
  0       1.126955447876   -1.744376682684    0.373400221056
  1      -3.242546602901   -3.042690095335   -0.441925449137
  2       1.353581370371   -0.843762956012   -4.160204332356
  3      -0.620606992791   -0.285462803572    4.403812550442
  4       4.010275134155    1.866620906743    0.693163609632
  5       2.729142385983   -4.244355428212    0.908726549932
  6       3.996699451865    1.178047197284   -4.455749003628
  7       5.103579292425    2.310004584800   -2.433013434164
  8      -4.681888688788   -2.945387344225    2.567083178720
  9      -3.592449167721   -1.808758309409    4.597053096540
 10       5.073833277415    1.664344832640   -7.654842828685
 11       7.757992622785    4.426994191632   -2.732898111190
 12      -5.086123920971   -1.650532467657    7.643394201401
 13      -7.754734345873   -4.444991427185    2.729817676580
 14       6.387282507409    7.172234921989   -4.390685140084
 15      -7.742791659116    0.476204948441    7.103286645619
 16       4.296192253576    5.018146808444   -8.243675900076
 17      -9.921025204072   -1.714402360523    3.316126755498
 18       6.192769703044    6.953924254104   -7.272911269752
 19       2.417894697309    5.334295528405   -7.450298621283
 20       4.143602812681    5.125911111323  -10.303664709374
 21       5.659111411124    8.838851620573   -7.981465719792
 22       8.054890708336    6.517613589554   -8.064834346652
 23       7.610685045669    8.778607427166   -3.937802792717
 24       4.533082847065    7.543974473848   -3.562690123563
 25     -10.195139103334   -0.840612319473    5.902984864109
 26     -11.433887072892   -2.852431131287    2.245257166398
 27      -9.110545863955   -0.404460945325    1.919164945651
 28     -10.885387199026   -2.550026064254    6.887070870067
 29     -11.442714131004    0.867805997466    6.513444387757
 30      -7.379222715377    2.117048353288    5.851236020195
 31      -8.854658632659    1.396393072481    8.749375069158


------------------
SYMMETRY REDUCTION
------------------
ORCA supports only abelian point groups.
It is now checked, if the determined point group is supported:
Point Group ( C1    ) is          ... supported

The point group is C1 - hence turning off symmetry
If this is a round-off problem, please increase the symmetry
        detection tolerance (%method SymThresh)

Storing the symmetry object:
Symmetry file                     ... input_61.sym.tmp
Writing symmetry information      ... done

                       ****************************
                       * Single Point Calculation *
                       ****************************

---------------------------------
CARTESIAN COORDINATES (ANGSTROEM)
---------------------------------
  V      0.596359   -0.923084    0.197595
  S     -1.715882   -1.610122   -0.233857
  S      0.716284   -0.446500   -2.201485
  S     -0.328411   -0.151060    2.330397
  S      2.122146    0.987773    0.366806
  O      1.444200   -2.246016    0.480877
  C      2.114962    0.623396   -2.357881
  C      2.700698    1.222402   -1.287495
  C     -2.477549   -1.558632    1.358442
  C     -1.901042   -0.957154    2.432656
  S      2.684957    0.880733   -4.050768
  S      4.105353    2.342664   -1.446187
  S     -2.691461   -0.873424    4.044710
  S     -4.103629   -2.352188    1.444557
  C      3.380004    3.795383   -2.323451
  C     -4.097309    0.251997    3.758897
  C      2.273447    2.655489   -4.362365
  C     -5.249980   -0.907223    1.754819
  C      3.277073    3.679858   -3.848659
  H      1.279495    2.822788   -3.942528
  H      2.192700    2.712515   -5.452465
  H      2.994673    4.677319   -4.223610
  H      4.262465    3.448973   -4.267727
  H      4.027401    4.645439   -2.083795
  H      2.398804    3.992099   -1.885294
  C     -5.395035   -0.444833    3.123725
  H     -6.050552   -1.509442    1.188139
  H     -4.821093   -0.214032    1.015578
  H     -5.760299   -1.349416    3.644481
  H     -6.055224    0.459223    3.446766
  H     -3.904916    1.120294    3.096341
  H     -4.685684    0.738939    4.629970

----------------------------
CARTESIAN COORDINATES (A.U.)
----------------------------
  NO LB      ZA    FRAG     MASS         X           Y           Z
   0 V    23.0000    0    50.940    1.126955   -1.744377    0.373400
   1 S    16.0000    0    32.060   -3.242547   -3.042690   -0.441925
   2 S    16.0000    0    32.060    1.353581   -0.843763   -4.160204
   3 S    16.0000    0    32.060   -0.620607   -0.285463    4.403813
   4 S    16.0000    0    32.060    4.010275    1.866621    0.693164
   5 O     8.0000    0    15.999    2.729142   -4.244355    0.908727
   6 C     6.0000    0    12.011    3.996699    1.178047   -4.455749
   7 C     6.0000    0    12.011    5.103579    2.310005   -2.433013
   8 C     6.0000    0    12.011   -4.681889   -2.945387    2.567083
   9 C     6.0000    0    12.011   -3.592449   -1.808758    4.597053
  10 S    16.0000    0    32.060    5.073833    1.664345   -7.654843
  11 S    16.0000    0    32.060    7.757993    4.426994   -2.732898
  12 S    16.0000    0    32.060   -5.086124   -1.650532    7.643394
  13 S    16.0000    0    32.060   -7.754734   -4.444991    2.729818
  14 C     6.0000    0    12.011    6.387283    7.172235   -4.390685
  15 C     6.0000    0    12.011   -7.742792    0.476205    7.103287
  16 C     6.0000    0    12.011    4.296192    5.018147   -8.243676
  17 C     6.0000    0    12.011   -9.921025   -1.714402    3.316127
  18 C     6.0000    0    12.011    6.192770    6.953924   -7.272911
  19 H     1.0000    0     1.008    2.417895    5.334296   -7.450299
  20 H     1.0000    0     1.008    4.143603    5.125911  -10.303665
  21 H     1.0000    0     1.008    5.659111    8.838852   -7.981466
  22 H     1.0000    0     1.008    8.054891    6.517614   -8.064834
  23 H     1.0000    0     1.008    7.610685    8.778607   -3.937803
  24 H     1.0000    0     1.008    4.533083    7.543974   -3.562690
  25 C     6.0000    0    12.011  -10.195139   -0.840612    5.902985
  26 H     1.0000    0     1.008  -11.433887   -2.852431    2.245257
  27 H     1.0000    0     1.008   -9.110546   -0.404461    1.919165
  28 H     1.0000    0     1.008  -10.885387   -2.550026    6.887071
  29 H     1.0000    0     1.008  -11.442714    0.867806    6.513444
  30 H     1.0000    0     1.008   -7.379223    2.117048    5.851236
  31 H     1.0000    0     1.008   -8.854659    1.396393    8.749375

--------------------------------
INTERNAL COORDINATES (ANGSTROEM)
--------------------------------
 V      0   0   0     0.000000000000     0.00000000     0.00000000
 S      1   0   0     2.450434577615     0.00000000     0.00000000
 S      1   2   0     2.448897800459    85.88742750     0.00000000
 S      1   2   3     2.449503379443    83.42125784   145.68128610
 S      1   2   3     2.451129443244   144.89579108    72.42024471
 O      1   2   3     1.596631293798   107.45758078   252.40964533
 C      3   1   2     1.767890384177   104.07455355   161.61112535
 C      7   3   1     1.359271743764   122.54444308   346.59995036
 C      2   1   3     1.765843521644   103.89038020   198.90208938
 C      9   2   1     1.359437801991   122.85492159    13.30890857
 S      7   3   1     1.804711832720   114.78116446   167.63781405
 S      8   7   3     1.803670526757   122.68453974   181.36209641
 S     10   9   2     1.797356741741   122.87713928   178.63934984
 S      9   2   1     1.811431274283   114.66371146   192.48633593
 C     12   8   7     1.845565787663   102.98165553    67.17848547
 C     13  10   9     1.823367722350   103.13415654   291.60145585
 C     11   7   3     1.848293926939   102.98759695   111.59968557
 C     14   9   2     1.870376904069   102.68724792   247.11196551
 C     17  11   7     1.523315831510   116.24215800    82.65514374
 H     17  11   7     1.091875998389   106.55750852   317.66067677
 H     17  11   7     1.094572141733   103.55320430   203.95839498
 H     19  17  11     1.102390789831   108.96415428   171.76215831
 H     19  17  11     1.095410088120   108.77911599    55.53818607
 H     15  12   8     1.095057892938   105.94101369   156.86172630
 H     15  12   8     1.092443049295   107.70367314    41.87308626
 C     18  14   9     1.452153506963   117.61888854   277.09892484
 H     18  14   9     1.150960086712    86.58409089   149.99006523
 H     18  14   9     1.100424681581    97.83633045    44.63749835
 H     26  18  14     1.105836421244   102.50040718   301.48065443
 H     26  18  14     1.165127258086   124.40454257   178.43152690
 H     16  13  10     1.109024669773   116.30415316   320.78057030
 H     16  13  10     1.158475325581   122.21950929   194.90123900

---------------------------
INTERNAL COORDINATES (A.U.)
---------------------------
 V      0   0   0     0.000000000000     0.00000000     0.00000000
 S      1   0   0     4.630650260784     0.00000000     0.00000000
 S      1   2   0     4.627746172830    85.88742750     0.00000000
 S      1   2   3     4.628890551262    83.42125784   145.68128610
 S      1   2   3     4.631963366522   144.89579108    72.42024471
 O      1   2   3     3.017195882126   107.45758078   252.40964533
 C      3   1   2     3.340828660888   104.07455355   161.61112535
 C      7   3   1     2.568651337291   122.54444308   346.59995036
 C      2   1   3     3.336960651266   103.89038020   198.90208938
 C      9   2   1     2.568965141862   122.85492159    13.30890857
 S      7   3   1     3.410411114487   114.78116446   167.63781405
 S      8   7   3     3.408443331396   122.68453974   181.36209641
 S     10   9   2     3.396512006848   122.87713928   178.63934984
 S      9   2   1     3.423109018815   114.66371146   192.48633593
 C     12   8   7     3.487613900818   102.98165553    67.17848547
 C     13  10   9     3.445665636673   103.13415654   291.60145585
 C     11   7   3     3.492769336905   102.98759695   111.59968557
 C     14   9   2     3.534500115902   102.68724792   247.11196551
 C     17  11   7     2.878649737020   116.24215800    82.65514374
 H     17  11   7     2.063346609156   106.55750852   317.66067677
 H     17  11   7     2.068441581694   103.55320430   203.95839498
 H     19  17  11     2.083216685338   108.96415428   171.76215831
 H     19  17  11     2.070025070880   108.77911599    55.53818607
 H     15  12   8     2.069359518442   105.94101369   156.86172630
 H     15  12   8     2.064418180073   107.70367314    41.87308626
 C     18  14   9     2.744172432573   117.61888854   277.09892484
 H     18  14   9     2.174999354959    86.58409089   149.99006523
 H     18  14   9     2.079501279196    97.83633045    44.63749835
 H     26  18  14     2.089727985067   102.50040718   301.48065443
 H     26  18  14     2.201771428948   124.40454257   178.43152690
 H     16  13  10     2.095752901634   116.30415316   320.78057030
 H     16  13  10     2.189201098253   122.21950929   194.90123900

---------------------
BASIS SET INFORMATION
---------------------
There are 5 groups of distinct atoms

 Group   1 Type V   : 17s11p5d1f contracted to 17s7p3d1f pattern {11111111111111111/3311111/311/1}
 Group   2 Type S   : 14s9p1d contracted to 5s4p1d pattern {73211/6111/1}
 Group   3 Type O   : 11s6p1d contracted to 5s3p1d pattern {62111/411/1}
 Group   4 Type C   : 11s6p1d contracted to 5s3p1d pattern {62111/411/1}
 Group   5 Type H   : 5s1p contracted to 3s1p pattern {311/1}

Atom   0V    basis set group =>   1
Atom   1S    basis set group =>   2
Atom   2S    basis set group =>   2
Atom   3S    basis set group =>   2
Atom   4S    basis set group =>   2
Atom   5O    basis set group =>   3
Atom   6C    basis set group =>   4
Atom   7C    basis set group =>   4
Atom   8C    basis set group =>   4
Atom   9C    basis set group =>   4
Atom  10S    basis set group =>   2
Atom  11S    basis set group =>   2
Atom  12S    basis set group =>   2
Atom  13S    basis set group =>   2
Atom  14C    basis set group =>   4
Atom  15C    basis set group =>   4
Atom  16C    basis set group =>   4
Atom  17C    basis set group =>   4
Atom  18C    basis set group =>   4
Atom  19H    basis set group =>   5
Atom  20H    basis set group =>   5
Atom  21H    basis set group =>   5
Atom  22H    basis set group =>   5
Atom  23H    basis set group =>   5
Atom  24H    basis set group =>   5
Atom  25C    basis set group =>   4
Atom  26H    basis set group =>   5
Atom  27H    basis set group =>   5
Atom  28H    basis set group =>   5
Atom  29H    basis set group =>   5
Atom  30H    basis set group =>   5
Atom  31H    basis set group =>   5

-------------------------
BASIS SET IN INPUT FORMAT
-------------------------

 # Basis set for element : H 
 NewGTO H 
 S 3 
   1      34.0613410000      0.0254393168
   2       5.1235746000      0.1900859340
   3       1.1646626000      0.8524411390
 S 1 
   1       0.3272304100      1.0000000000
 S 1 
   1       0.1030724100      1.0000000000
 P 1 
   1       0.8000000000      1.0000000000
  end;

 # Basis set for element : C 
 NewGTO C 
 S 6 
   1   13575.3496820000      0.0006064601
   2    2035.2333680000      0.0046978985
   3     463.2256235900      0.0243324735
   4     131.2001959800      0.0973999560
   5      42.8530158900      0.3019558443
   6      15.5841857700      0.6623361013
 S 2 
   1       6.2067138500      0.6559530795
   2       2.5764896500      0.3758563390
 S 1 
   1       0.5769633900      1.0000000000
 S 1 
   1       0.2297283100      1.0000000000
 S 1 
   1       0.0951644400      1.0000000000
 P 4 
   1      34.6972322400      0.0113272290
   2       7.9582622800      0.0761696612
   3       2.3780826900      0.3019225154
   4       0.8143320800      0.7278502776
 P 1 
   1       0.2888754700      1.0000000000
 P 1 
   1       0.1005682400      1.0000000000
 D 1 
   1       0.8000000000      1.0000000000
  end;

 # Basis set for element : O 
 NewGTO O 
 S 6 
   1   27032.3826310000      0.0005722654
   2    4052.3871392000      0.0044353333
   3     922.3272271000      0.0230201034
   4     261.2407098900      0.0928224938
   5      85.3546413500      0.2937849971
   6      31.0350352400      0.6740160462
 S 2 
   1      12.2608607300      0.6383993750
   2       4.9987076000      0.3953458663
 S 1 
   1       1.1703108200      1.0000000000
 S 1 
   1       0.4647474100      1.0000000000
 S 1 
   1       0.1850453600      1.0000000000
 P 4 
   1      63.2749548000      0.0120183316
   2      14.6270493800      0.0830054304
   3       4.4501223500      0.3199174388
   4       1.5275799600      0.7071554258
 P 1 
   1       0.5293511800      1.0000000000
 P 1 
   1       0.1747842100      1.0000000000
 D 1 
   1       1.2000000000      1.0000000000
  end;

 # Basis set for element : S 
 NewGTO S 
 S 7 
   1   60700.9281040000      0.0005238013
   2    9102.6106854000      0.0040506304
   3    2071.4166009000      0.0208270003
   4     586.0247682100      0.0814968475
   5     190.5539502100      0.2374911358
   6      67.6303842600      0.4472617145
   7      25.1273069100      0.3489191913
 S 3 
   1     112.5746301000      0.1004556993
   2      34.7955542200      0.4339117282
   3       6.5115556200     -1.2084330582
 S 2 
   1       3.2399032300      0.6749812922
   2       1.5477160900      0.3470879597
 S 1 
   1       0.4054103000      1.0000000000
 S 1 
   1       0.1455065100      1.0000000000
 P 6 
   1     564.3671602700      0.0025564845
   2     133.4262437900      0.0202874255
   3      42.4682711900      0.0927670112
   4      15.6165275800      0.2650208365
   5       6.1093988500      0.4486298663
   6       2.4404160200      0.3596369916
 P 1 
   1       0.8388220100      1.0000000000
 P 1 
   1       0.3128874700      1.0000000000
 P 1 
   1       0.1077010900      1.0000000000
 D 1 
   1       0.5500000000      1.0000000000
  end;

 # Basis set for element : V 
 NewGTO V 
 S 1 
   1  4239814.9912500000      1.0000000000
 S 1 
   1  1695925.9965000001      1.0000000000
 S 1 
   1  678370.3986000001      1.0000000000
 S 1 
   1  271348.1594400000      1.0000000000
 S 1 
   1   40672.0050780000      1.0000000000
 S 1 
   1    9257.0761385000      1.0000000000
 S 1 
   1    2622.7328773000      1.0000000000
 S 1 
   1     858.5948018500      1.0000000000
 S 1 
   1     314.1941865000      1.0000000000
 S 1 
   1     124.4786212700      1.0000000000
 S 1 
   1      50.4693993090      1.0000000000
 S 1 
   1      12.5138469110      1.0000000000
 S 1 
   1       5.3447758082      1.0000000000
 S 1 
   1       1.5755631295      1.0000000000
 S 1 
   1       0.6306903307      1.0000000000
 S 1 
   1       0.0879544416      1.0000000000
 S 1 
   1       0.0342969197      1.0000000000
 P 3 
   1    1450.0319327000     -0.0222847647
   2     343.7504988400     -0.1817959329
   3     110.8252170800     -0.8607412073
 P 3 
   1      41.8224645460     -0.2522537814
   2      17.0880737100     -0.4620379520
   3       7.2613218939     -0.3990010670
 P 1 
   1       2.9458145262      1.0000000000
 P 1 
   1       1.1650209680      1.0000000000
 P 1 
   1       0.4339937839      1.0000000000
 D 3 
   1      27.3603358640      0.0575501019
   2       7.4542765527      0.3023798347
   3       2.4632270217      0.7724212088
 D 1 
   1       0.8249954244      1.0000000000
 D 1 
   1       0.2526297057      1.0000000000
 P 1 
   1       0.1112480000      1.0000000000
 P 1 
   1       0.0363780000      1.0000000000
 F 1 
   1       1.8000000000      1.0000000000
  end;

---------------------------------
AUXILIARY/J BASIS SET INFORMATION
---------------------------------
There are 5 groups of distinct atoms

 Group   1 Type V   : 19s5p5d3f3g contracted to 8s5p5d2f3g pattern {121111111/11111/11111/21/111}
 Group   2 Type S   : 14s5p5d2f1g contracted to 8s4p3d1f1g pattern {71111111/2111/311/2/1}
 Group   3 Type O   : 12s5p4d2f1g contracted to 6s4p3d1f1g pattern {711111/2111/211/2/1}
 Group   4 Type C   : 12s5p4d2f1g contracted to 6s4p3d1f1g pattern {711111/2111/211/2/1}
 Group   5 Type H   : 5s2p1d contracted to 3s1p1d pattern {311/2/1}

Atom   0V    basis set group =>   1
Atom   1S    basis set group =>   2
Atom   2S    basis set group =>   2
Atom   3S    basis set group =>   2
Atom   4S    basis set group =>   2
Atom   5O    basis set group =>   3
Atom   6C    basis set group =>   4
Atom   7C    basis set group =>   4
Atom   8C    basis set group =>   4
Atom   9C    basis set group =>   4
Atom  10S    basis set group =>   2
Atom  11S    basis set group =>   2
Atom  12S    basis set group =>   2
Atom  13S    basis set group =>   2
Atom  14C    basis set group =>   4
Atom  15C    basis set group =>   4
Atom  16C    basis set group =>   4
Atom  17C    basis set group =>   4
Atom  18C    basis set group =>   4
Atom  19H    basis set group =>   5
Atom  20H    basis set group =>   5
Atom  21H    basis set group =>   5
Atom  22H    basis set group =>   5
Atom  23H    basis set group =>   5
Atom  24H    basis set group =>   5
Atom  25C    basis set group =>   4
Atom  26H    basis set group =>   5
Atom  27H    basis set group =>   5
Atom  28H    basis set group =>   5
Atom  29H    basis set group =>   5
Atom  30H    basis set group =>   5
Atom  31H    basis set group =>   5

-------------------------------------
AUXILIARY/J BASIS SET IN INPUT FORMAT
-------------------------------------

 # Auxiliary/J basis set for element : H 
 NewAuxJGTO H 
 S 3 
   1      15.6752927000      0.1007184237
   2       3.6063578000      0.3404257499
   3       1.2080016000      0.6491996172
 S 1 
   1       0.4726794000      1.0000000000
 S 1 
   1       0.2018100000      1.0000000000
 P 2 
   1       2.0281365000      0.5596620919
   2       0.5358730000      0.5596620919
 D 1 
   1       2.2165124000      1.0000000000
  end;

 # Auxiliary/J basis set for element : C 
 NewAuxJGTO C 
 S 7 
   1    1861.0916331000      0.0134602335
   2     642.9939764000      0.0299160374
   3     235.1105725000      0.1008649584
   4      90.7028894000      0.2370970548
   5      36.7794552000      0.3924037254
   6      15.6046273000      0.3195862154
   7       6.8907294000      0.0530104441
 S 1 
   1       3.1478850000     -1.0000000000
 S 1 
   1       1.4777287000      1.0000000000
 S 1 
   1       0.7076466000      1.0000000000
 S 1 
   1       0.3430122000      1.0000000000
 S 1 
   1       0.1669453000      1.0000000000
 P 2 
   1      13.5472892000     -0.6769313712
   2       5.4669419000     -0.3779500978
 P 1 
   1       2.1751721000      1.0000000000
 P 1 
   1       0.8582194000      1.0000000000
 P 1 
   1       0.3376720000      1.0000000000
 D 2 
   1       5.9287253000     -0.3533329857
   2       1.9809209000     -0.7456525731
 D 1 
   1       0.8055417000     -1.0000000000
 D 1 
   1       0.3531244000     -1.0000000000
 F 2 
   1       1.6755626000      0.6311076882
   2       0.5997536000      0.4968166032
 G 1 
   1       1.0024600000     -1.0000000000
  end;

 # Auxiliary/J basis set for element : O 
 NewAuxJGTO O 
 S 7 
   1    2876.8216605000      0.0168151159
   2    1004.7443032000      0.0340137548
   3     369.7579954000      0.1194951309
   4     142.9442404000      0.2664627624
   5      57.8366425000      0.4202764046
   6      24.3864983000      0.2765077335
   7      10.6622662000      0.0057008815
 S 1 
   1       4.8070437000     -1.0000000000
 S 1 
   1       2.2210770000      1.0000000000
 S 1 
   1       1.0447795000      1.0000000000
 S 1 
   1       0.4968425000      1.0000000000
 S 1 
   1       0.2371384000      1.0000000000
 P 2 
   1      64.2613382000     -0.2731534179
   2      16.3006076000     -0.8168011598
 P 1 
   1       4.3550542000      1.0000000000
 P 1 
   1       1.2019554000      1.0000000000
 P 1 
   1       0.3354196000      1.0000000000
 D 2 
   1       9.2146611000     -0.4661230638
   2       2.8435251000     -0.6600908911
 D 1 
   1       0.9955759000     -1.0000000000
 D 1 
   1       0.3649441000     -1.0000000000
 F 2 
   1       2.6420115000      0.5931563945
   2       0.7345613000      0.5931563945
 G 1 
   1       1.3931000000     -1.0000000000
  end;

 # Auxiliary/J basis set for element : S 
 NewAuxJGTO S 
 S 7 
   1    7399.0303145000      0.0295137551
   2    2710.1675859000      0.0559686311
   3    1034.3279062000      0.1764696370
   4     410.4645411000      0.3577969368
   5     168.9762502000      0.4299293578
   6      71.9687889000      0.1259148089
   7      31.6172683000     -0.0646025788
 S 1 
   1      14.2796836000      1.0000000000
 S 1 
   1       6.6060948000      1.0000000000
 S 1 
   1       3.1181477000      1.0000000000
 S 1 
   1       1.4954039000     -1.0000000000
 S 1 
   1       0.7254779000      1.0000000000
 S 1 
   1       0.3544216000      1.0000000000
 S 1 
   1       0.1735525000      1.0000000000
 P 2 
   1      12.6998799000      1.4059102813
   2       4.4295784000     -1.2124994202
 P 1 
   1       1.5232889000      1.0000000000
 P 1 
   1       0.5194667000     -1.0000000000
 P 1 
   1       0.1766547000     -1.0000000000
 D 3 
   1      16.8546461000      1.0295742104
   2       5.0810461000     -0.7461553923
   3       1.5102323000      0.8357028005
 D 1 
   1       0.4451331000      1.0000000000
 D 1 
   1       0.1308362000      1.0000000000
 F 2 
   1       1.0809860000      0.5572698934
   2       0.4161474000      0.5572698934
 G 1 
   1       0.6707100000     -1.0000000000
  end;

 # Auxiliary/J basis set for element : V 
 NewAuxJGTO V 
 S 12 
   1   11942.0842430000      0.0459866720
   2    2430.7110193000      0.1744615821
   3     841.0764301000      0.2900402792
   4     494.7508273000      0.1411212903
   5     291.0298903000      0.2660697186
   6     171.1940483000      0.0446365706
   7      59.2366916000     -0.0408204801
   8      34.8451117000      0.1394665381
   9      20.4971240000      0.2164746715
  10      12.0571314000      0.0864266611
  11       7.0924300000     -0.0568501658
  12       4.1720176000     -0.0126212852
 S 1 
   1       2.4541279000      1.0000000000
 S 1 
   1       1.4436046000      1.0000000000
 S 1 
   1       0.8491792000      1.0000000000
 S 1 
   1       0.2938336000      1.0000000000
 S 1 
   1       0.1728433000      1.0000000000
 S 1 
   1       0.1016725000      1.0000000000
 S 1 
   1       0.0598074000      1.0000000000
 P 1 
   1      16.7130979000     -1.0000000000
 P 1 
   1       4.7454037000     -1.0000000000
 P 1 
   1       1.3889998000      1.0000000000
 P 1 
   1       0.4142440000     -1.0000000000
 P 1 
   1       0.1243234000      1.0000000000
 D 1 
   1       7.7143225000      1.0000000000
 D 1 
   1       3.1170731000      1.0000000000
 D 1 
   1       1.2767950000     -1.0000000000
 D 1 
   1       0.5273386000      1.0000000000
 D 1 
   1       0.2184050000      1.0000000000
 F 2 
   1       3.1309344000     -1.0825667766
   2       1.0419780000      0.1809223232
 F 1 
   1       0.3559044000      1.0000000000
 G 1 
   1       8.7130110000      1.0000000000
 G 1 
   1       2.7493872000      1.0000000000
 G 1 
   1       0.8775089000      1.0000000000
  end;



           ************************************************************
           *        Program running with 4 parallel MPI-processes     *
           *              working on a common directory               *
           ************************************************************
------------------------------------------------------------------------------
                           ORCA GTO INTEGRAL CALCULATION
                           -- RI-GTO INTEGRALS CHOSEN --
------------------------------------------------------------------------------
------------------------------------------------------------------------------
                   ___                                                        
                  /   \      - P O W E R E D   B Y -                         
                 /     \                                                     
                 |  |  |   _    _      __       _____    __    __             
                 |  |  |  | |  | |    /  \     |  _  \  |  |  /  |          
                  \  \/   | |  | |   /    \    | | | |  |  | /  /          
                 / \  \   | |__| |  /  /\  \   | |_| |  |  |/  /          
                |  |  |   |  __  | /  /__\  \  |    /   |      \           
                |  |  |   | |  | | |   __   |  |    \   |  |\   \          
                \     /   | |  | | |  |  |  |  | |\  \  |  | \   \       
                 \___/    |_|  |_| |__|  |__|  |_| \__\ |__|  \__/        
                                                                              
                      - O R C A' S   B I G   F R I E N D -                    
                                      &                                       
                       - I N T E G R A L  F E E D E R -                       
                                                                              
 v1 FN, 2020, v2 2021                                                         
------------------------------------------------------------------------------


Reading SHARK input file input_61.SHARKINP.tmp ... ok
----------------------
SHARK INTEGRAL PACKAGE
----------------------

Number of atoms                             ...     32
Number of basis functions                   ...    517
Number of shells                            ...    255
Maximum angular momentum                    ...      3
Integral batch strategy                     ... SHARK/LIBINT Hybrid
RI-J (if used) integral strategy            ... SPLIT-RIJ (Revised 2003 algorithm where possible)
Printlevel                                  ...      1
Contraction scheme used                     ... SEGMENTED contraction
Coulomb Range Separation                    ... NOT USED
Exchange Range Separation                   ... NOT USED
Finite Nucleus Model                        ... NOT USED
Auxiliary Coulomb fitting basis             ... AVAILABLE
   # of basis functions in Aux-J            ...   1168
   # of shells in Aux-J                     ...    384
   Maximum angular momentum in Aux-J        ...      4
Auxiliary J/K fitting basis                 ... NOT available
Auxiliary Correlation fitting basis         ... NOT available
Auxiliary 'external' fitting basis          ... NOT available
Integral threshold                          ...     1.000000e-10
Primitive cut-off                           ...     1.000000e-11
Primitive pair pre-selection threshold      ...     1.000000e-11

Calculating pre-screening integrals         ... done (  0.1 sec) Dimension = 255
Organizing shell pair data                  ... done (  0.1 sec)
Shell pair information
Total number of shell pairs                 ...     32640
Shell pairs after pre-screening             ...     17822
Total number of primitive shell pairs       ...    123863
Primitive shell pairs kept                  ...     41655
          la=0 lb=0:   5381 shell pairs
          la=1 lb=0:   7062 shell pairs
          la=1 lb=1:   2297 shell pairs
          la=2 lb=0:   1676 shell pairs
          la=2 lb=1:   1114 shell pairs
          la=2 lb=2:    154 shell pairs
          la=3 lb=0:     73 shell pairs
          la=3 lb=1:     52 shell pairs
          la=3 lb=2:     12 shell pairs
          la=3 lb=3:      1 shell pairs

Calculating one electron integrals          ... done (  0.0 sec)
Calculating RI/J V-Matrix + Cholesky decomp.... done (  0.1 sec)
Calculating Nuclear repulsion               ... done (  0.0 sec) ENN=   3211.676776400222 Eh

SHARK setup successfully completed in   0.5 seconds

Maximum memory used throughout the entire GTOINT-calculation: 31.9 MB


           ************************************************************
           *        Program running with 4 parallel MPI-processes     *
           *              working on a common directory               *
           ************************************************************
-------------------------------------------------------------------------------
                                 ORCA SCF
-------------------------------------------------------------------------------

------------
SCF SETTINGS
------------
Hamiltonian:
 Density Functional     Method          .... DFT(GTOs)
 Exchange Functional    Exchange        .... B88
   X-Alpha parameter    XAlpha          ....  0.666667
   Becke's b parameter  XBeta           ....  0.004200
 Correlation Functional Correlation     .... LYP
 LDA part of GGA corr.  LDAOpt          .... VWN-5
 Gradients option       PostSCFGGA      .... off
 Hybrid DFT is turned on
   Fraction HF Exchange ScalHFX         ....  0.200000
   Scaling of DF-GGA-X  ScalDFX         ....  0.720000
   Scaling of DF-GGA-C  ScalDFC         ....  0.810000
   Scaling of DF-LDA-C  ScalLDAC        ....  1.000000
   Perturbative correction              ....  0.000000
   Density functional embedding theory  .... OFF
   NL short-range parameter             ....  4.800000
 RI-approximation to the Coulomb term is turned on
   Number of AuxJ basis functions       .... 1168
   RIJ-COSX (HFX calculated with COS-X)).... on


General Settings:
 Integral files         IntName         .... input_61
 Hartree-Fock type      HFTyp           .... UHF
 Total Charge           Charge          ....   -2
 Multiplicity           Mult            ....    2
 Number of Electrons    NEL             ....  233
 Basis Dimension        Dim             ....  517
 Nuclear Repulsion      ENuc            ....   3211.6767764002 Eh

Convergence Acceleration:
 DIIS                   CNVDIIS         .... on
   Start iteration      DIISMaxIt       ....    12
   Startup error        DIISStart       ....  0.200000
   # of expansion vecs  DIISMaxEq       ....     5
   Bias factor          DIISBfac        ....   1.050
   Max. coefficient     DIISMaxC        ....  10.000
 Trust-Rad. Augm. Hess. CNVTRAH         .... auto
   Auto Start mean grad. ratio tolernc. ....  1.125000
   Auto Start start iteration           ....    20
   Auto Start num. interpolation iter.  ....    10
   Max. Number of Micro iterations      ....    16
   Max. Number of Macro iterations      .... Maxiter - #DIIS iter
   Number of Davidson start vectors     ....     2
   Converg. threshold I  (grad. norm)   ....   5.000e-05
   Converg. threshold II (energy diff.) ....   1.000e-06
   Grad. Scal. Fac. for Micro threshold ....   0.100
   Minimum threshold for Micro iter.    ....   0.010
   NR start threshold (gradient norm)   ....   0.001
   Initial trust radius                 ....   0.400
   Minimum AH scaling param. (alpha)    ....   1.000
   Maximum AH scaling param. (alpha)    .... 1000.000
   Orbital update algorithm             .... Taylor
   White noise on init. David. guess    .... on
   Maximum white noise                  ....   0.010
   Quad. conv. algorithm                .... NR
 SOSCF                  CNVSOSCF        .... off
 Level Shifting         CNVShift        .... on
   Level shift para.    LevelShift      ....    0.2500
   Turn off err/grad.   ShiftErr        ....    0.0010
 Zerner damping         CNVZerner       .... off
 Static damping         CNVDamp         .... on
   Fraction old density DampFac         ....    0.7000
   Max. Damping (<1)    DampMax         ....    0.9800
   Min. Damping (>=0)   DampMin         ....    0.0000
   Turn off err/grad.   DampErr         ....    0.1000
 Fernandez-Rico         CNVRico         .... off

SCF Procedure:
 Maximum # iterations   MaxIter         ....   125
 SCF integral mode      SCFMode         .... Direct
   Integral package                     .... SHARK and LIBINT hybrid scheme
 Reset frequency        DirectResetFreq ....    20
 Integral Threshold     Thresh          ....  1.000e-10 Eh
 Primitive CutOff       TCut            ....  1.000e-11 Eh

Convergence Tolerance:
 Convergence Check Mode ConvCheckMode   .... Total+1el-Energy
 Convergence forced     ConvForced      .... 0
 Energy Change          TolE            ....  1.000e-06 Eh
 1-El. energy change                    ....  1.000e-03 Eh
 DIIS Error             TolErr          ....  1.000e-06


Diagonalization of the overlap matrix:
Smallest eigenvalue                        ... 1.843e-04
Time for diagonalization                   ...    0.139 sec
Threshold for overlap eigenvalues          ... 1.000e-08
Number of eigenvalues below threshold      ... 0
Time for construction of square roots      ...    0.072 sec
Total time needed                          ...    0.212 sec

Time for model grid setup =    0.355 sec

------------------------------
INITIAL GUESS: MODEL POTENTIAL
------------------------------
Loading Hartree-Fock densities                     ... done
Calculating cut-offs                               ... done
Initializing the effective Hamiltonian             ... done
Setting up the integral package (SHARK)            ... done
Starting the Coulomb interaction                   ... done (   0.4 sec)
Reading the grid                                   ... done
Mapping shells                                     ... done
Starting the XC term evaluation                    ... done (   0.2 sec)
  promolecular density results
     # of electrons  =    230.996095368
     EX              =   -307.532943316
     EC              =     -9.026541016
     EX+EC           =   -316.559484332
Transforming the Hamiltonian                       ... done (   0.1 sec)
Diagonalizing the Hamiltonian                      ... done (   0.1 sec)
Back transforming the eigenvectors                 ... done (   0.0 sec)
Now organizing SCF variables                       ... done
                      ------------------
                      INITIAL GUESS DONE (   1.2 sec)
                      ------------------
-------------------
DFT GRID GENERATION
-------------------

General Integration Accuracy     IntAcc      ... 4.388
Radial Grid Type                 RadialGrid  ... OptM3 with GC (2021)
Angular Grid (max. ang.)         AngularGrid ... 4 (Lebedev-302)
Angular grid pruning method      GridPruning ... 4 (adaptive)
Weight generation scheme         WeightScheme... Becke
Basis function cutoff            BFCut       ... 1.0000e-10
Integration weight cutoff        WCut        ... 1.0000e-14
Angular grids for H and He will be reduced by one unit
Partially contracted basis set               ... off
Rotationally invariant grid construction     ... off

Total number of grid points                  ...   184076
Total number of batches                      ...     2890
Average number of points per batch           ...       63
Average number of grid points per atom       ...     5752
Time for grid setup =    1.592 sec

--------------------
COSX GRID GENERATION
--------------------

GRIDX 1
-------
General Integration Accuracy     IntAcc      ... 3.816
Radial Grid Type                 RadialGrid  ... OptM3 with GC (2021)
Angular Grid (max. ang.)         AngularGrid ... 1 (Lebedev-50)
Angular grid pruning method      GridPruning ... 4 (adaptive)
Weight generation scheme         WeightScheme... Becke
Basis function cutoff            BFCut       ... 1.0000e-10
Integration weight cutoff        WCut        ... 1.0000e-14
Angular grids for H and He will be reduced by one unit
Partially contracted basis set               ... on
Rotationally invariant grid construction     ... off

Total number of grid points                  ...    22816
Total number of batches                      ...      374
Average number of points per batch           ...       61
Average number of grid points per atom       ...      713
UseSFitting                                  ... on

GRIDX 2
-------
General Integration Accuracy     IntAcc      ... 4.020
Radial Grid Type                 RadialGrid  ... OptM3 with GC (2021)
Angular Grid (max. ang.)         AngularGrid ... 2 (Lebedev-110)
Angular grid pruning method      GridPruning ... 4 (adaptive)
Weight generation scheme         WeightScheme... Becke
Basis function cutoff            BFCut       ... 1.0000e-10
Integration weight cutoff        WCut        ... 1.0000e-14
Angular grids for H and He will be reduced by one unit
Partially contracted basis set               ... on
Rotationally invariant grid construction     ... off

Total number of grid points                  ...    49161
Total number of batches                      ...      783
Average number of points per batch           ...       62
Average number of grid points per atom       ...     1536
UseSFitting                                  ... on

GRIDX 3
-------
General Integration Accuracy     IntAcc      ... 4.338
Radial Grid Type                 RadialGrid  ... OptM3 with GC (2021)
Angular Grid (max. ang.)         AngularGrid ... 3 (Lebedev-194)
Angular grid pruning method      GridPruning ... 4 (adaptive)
Weight generation scheme         WeightScheme... Becke
Basis function cutoff            BFCut       ... 1.0000e-10
Integration weight cutoff        WCut        ... 1.0000e-14
Angular grids for H and He will be reduced by one unit
Partially contracted basis set               ... on
Rotationally invariant grid construction     ... off

Total number of grid points                  ...   112144
Total number of batches                      ...     1769
Average number of points per batch           ...       63
Average number of grid points per atom       ...     3504
UseSFitting                                  ... on

Time for X-Grid setup             =    1.794 sec

--------------
SCF ITERATIONS
--------------
ITER       Energy         Delta-E        Max-DP      RMS-DP      [F,P]     Damp
               ***  Starting incremental Fock matrix formation  ***
  0  -4591.9684862316   0.000000000000 0.06985080  0.00090669  0.2337256 0.7000
  1  -4592.2528417008  -0.284355469167 0.11175103  0.00089638  0.1560094 0.7000
                               ***Turning on DIIS***
  2  -4592.3981700198  -0.145328319005 0.07989091  0.00055839  0.1091653 0.7000
  3  -4592.4780648896  -0.079894869853 0.10968854  0.00087146  0.0772166 0.0000
  4  -4592.6675840072  -0.189519117554 0.06829645  0.00048902  0.0143923 0.0000
  5  -4592.6731045277  -0.005520520544 0.01168330  0.00010172  0.0108469 0.0000
  6  -4592.6742475745  -0.001143046732 0.00201271  0.00004470  0.0030660 0.0000
  7  -4592.6744426460  -0.000195071529 0.00139573  0.00002190  0.0013340 0.0000
  8  -4592.6745064746  -0.000063828601 0.00118544  0.00001558  0.0012465 0.0000
  9  -4592.6745423089  -0.000035834273 0.00237613  0.00002223  0.0009385 0.0000
               *** Restarting incremental Fock matrix formation ***
                                   *** Resetting DIIS ***
 10  -4592.6745549307  -0.000012621783 0.00128477  0.00001458  0.0008303 0.0000
 11  -4592.6745269436   0.000027987102 0.00034212  0.00000383  0.0024372 0.0000
 12  -4592.6745609627  -0.000034019163 0.00056130  0.00000596  0.0009949 0.0000
 13  -4592.6745680888  -0.000007126047 0.00038094  0.00000385  0.0003143 0.0000
 14  -4592.6745706522  -0.000002563423 0.00023502  0.00000247  0.0002009 0.0000
 15  -4592.6745713711  -0.000000718908 0.00024728  0.00000198  0.0001478 0.0000
 16  -4592.6745715990  -0.000000227872 0.00021401  0.00000153  0.0000867 0.0000
 17  -4592.6745717472  -0.000000148190 0.00004028  0.00000058  0.0000183 0.0000
 18  -4592.6745715562   0.000000190912 0.00002206  0.00000039  0.0000272 0.0000
 19  -4592.6745717028  -0.000000146565 0.00001029  0.00000014  0.0000295 0.0000
                 **** Energy Check signals convergence ****

               *****************************************************
               *                     SUCCESS                       *
               *           SCF CONVERGED AFTER  20 CYCLES          *
               *****************************************************

Old exchange energy                            =    -61.748724426 Eh
New exchange energy                            =    -61.748713903 Eh
Exchange energy change after final integration =      0.000010523 Eh
Total energy after final integration           =  -4592.674561265 Eh
Final COS-X integration done in                =    24.964 sec

----------------
TOTAL SCF ENERGY
----------------

Total Energy       :        -4592.67456126 Eh         -124973.02832 eV

Components:
Nuclear Repulsion  :         3211.67677640 Eh           87394.16812 eV
Electronic Energy  :        -7804.35133766 Eh         -212367.19644 eV
One Electron Energy:       -12786.77071657 Eh         -347945.72042 eV
Two Electron Energy:         4982.41937890 Eh          135578.52398 eV
Max COSX asymmetry :            0.00000352 Eh               0.00010 eV

Virial components:
Potential Energy   :        -9173.62635594 Eh         -249627.06394 eV
Kinetic Energy     :         4580.95179467 Eh          124654.03562 eV
Virial Ratio       :            2.00255902


DFT components:
N(Alpha)           :      117.000116126802 electrons
N(Beta)            :      116.000117618261 electrons
N(Total)           :      233.000233745063 electrons
E(X)               :     -245.445412857821 Eh       
E(C)               :      -10.623233088630 Eh       
E(XC)              :     -256.068645946452 Eh       
DFET-embed. en.    :        0.000000000000 Eh       

---------------
SCF CONVERGENCE
---------------

  Last Energy change         ...   -8.4652e-08  Tolerance :   1.0000e-06
  Last MAX-Density change    ...    0.0000e+00  Tolerance :   1.0000e-05
  Last RMS-Density change    ...    0.0000e+00  Tolerance :   1.0000e-06
  Last DIIS Error            ...    1.0366e-05  Tolerance :   1.0000e-06

             **** THE GBW FILE WAS UPDATED (input_61.gbw) ****
             **** DENSITY input_61.scfp WAS UPDATED ****
             **** ENERGY FILE WAS UPDATED (input_61.en.tmp) ****
----------------------
UHF SPIN CONTAMINATION
----------------------

Warning: in a DFT calculation there is little theoretical justification to 
         calculate <S**2> as in Hartree-Fock theory. We will do it anyways
         but you should keep in mind that the values have only limited relevance

Expectation value of <S**2>     :     0.764876
Ideal value S*(S+1) for S=0.5   :     0.750000
Deviation                       :     0.014876

             **** THE GBW FILE WAS UPDATED (input_61.gbw) ****
             **** DENSITY input_61.scfp WAS UPDATED ****
----------------
ORBITAL ENERGIES
----------------
                 SPIN UP ORBITALS
  NO   OCC          E(Eh)            E(eV) 
   0   1.0000    -196.641364     -5350.8836 
   1   1.0000     -88.681635     -2413.1500 
   2   1.0000     -88.678458     -2413.0635 
   3   1.0000     -88.677326     -2413.0327 
   4   1.0000     -88.677038     -2413.0249 
   5   1.0000     -88.615109     -2411.3397 
   6   1.0000     -88.613046     -2411.2836 
   7   1.0000     -88.612758     -2411.2757 
   8   1.0000     -88.612455     -2411.2675 
   9   1.0000     -22.017172      -599.1177 
  10   1.0000     -18.858433      -513.1640 
  11   1.0000     -18.523992      -504.0634 
  12   1.0000     -18.518225      -503.9065 
  13   1.0000     -18.518184      -503.9054 
  14   1.0000     -10.028898      -272.9002 
  15   1.0000     -10.018307      -272.6120 
  16   1.0000     -10.016331      -272.5582 
  17   1.0000     -10.015675      -272.5404 
  18   1.0000     -10.012829      -272.4629 
  19   1.0000     -10.005253      -272.2568 
  20   1.0000      -9.993900      -271.9478 
  21   1.0000      -9.992674      -271.9145 
  22   1.0000      -9.992657      -271.9140 
  23   1.0000      -9.991944      -271.8946 
  24   1.0000      -7.735154      -210.4842 
  25   1.0000      -7.732063      -210.4001 
  26   1.0000      -7.730965      -210.3703 
  27   1.0000      -7.730692      -210.3628 
  28   1.0000      -7.669519      -208.6982 
  29   1.0000      -7.667492      -208.6431 
  30   1.0000      -7.667175      -208.6344 
  31   1.0000      -7.666885      -208.6266 
  32   1.0000      -5.700515      -155.1189 
  33   1.0000      -5.697322      -155.0320 
  34   1.0000      -5.696488      -155.0093 
  35   1.0000      -5.696216      -155.0019 
  36   1.0000      -5.695935      -154.9943 
  37   1.0000      -5.693337      -154.9236 
  38   1.0000      -5.692318      -154.8958 
  39   1.0000      -5.692042      -154.8883 
  40   1.0000      -5.689808      -154.8276 
  41   1.0000      -5.686826      -154.7464 
  42   1.0000      -5.685712      -154.7161 
  43   1.0000      -5.685446      -154.7088 
  44   1.0000      -5.634364      -153.3188 
  45   1.0000      -5.632328      -153.2634 
  46   1.0000      -5.632016      -153.2549 
  47   1.0000      -5.631740      -153.2474 
  48   1.0000      -5.627913      -153.1433 
  49   1.0000      -5.627547      -153.1333 
  50   1.0000      -5.625933      -153.0894 
  51   1.0000      -5.625621      -153.0809 
  52   1.0000      -5.625482      -153.0771 
  53   1.0000      -5.625318      -153.0727 
  54   1.0000      -5.625160      -153.0684 
  55   1.0000      -5.624846      -153.0598 
  56   1.0000      -2.410868       -65.6030 
  57   1.0000      -1.452225       -39.5171 
  58   1.0000      -1.440659       -39.2023 
  59   1.0000      -1.439568       -39.1726 
  60   1.0000      -0.646171       -17.5832 
  61   1.0000      -0.644404       -17.5351 
  62   1.0000      -0.619435       -16.8557 
  63   1.0000      -0.595775       -16.2119 
  64   1.0000      -0.594364       -16.1735 
  65   1.0000      -0.577534       -15.7155 
  66   1.0000      -0.576421       -15.6852 
  67   1.0000      -0.494773       -13.4635 
  68   1.0000      -0.491167       -13.3653 
  69   1.0000      -0.487921       -13.2770 
  70   1.0000      -0.485856       -13.2208 
  71   1.0000      -0.425201       -11.5703 
  72   1.0000      -0.421738       -11.4761 
  73   1.0000      -0.412543       -11.2259 
  74   1.0000      -0.406444       -11.0599 
  75   1.0000      -0.376054       -10.2329 
  76   1.0000      -0.372216       -10.1285 
  77   1.0000      -0.293406        -7.9840 
  78   1.0000      -0.291653        -7.9363 
  79   1.0000      -0.284567        -7.7435 
  80   1.0000      -0.278313        -7.5733 
  81   1.0000      -0.260817        -7.0972 
  82   1.0000      -0.256369        -6.9762 
  83   1.0000      -0.241545        -6.5728 
  84   1.0000      -0.230634        -6.2759 
  85   1.0000      -0.195734        -5.3262 
  86   1.0000      -0.194358        -5.2888 
  87   1.0000      -0.192776        -5.2457 
  88   1.0000      -0.190885        -5.1942 
  89   1.0000      -0.185048        -5.0354 
  90   1.0000      -0.182169        -4.9571 
  91   1.0000      -0.164417        -4.4740 
  92   1.0000      -0.152075        -4.1382 
  93   1.0000      -0.150003        -4.0818 
  94   1.0000      -0.145248        -3.9524 
  95   1.0000      -0.143500        -3.9048 
  96   1.0000      -0.138686        -3.7738 
  97   1.0000      -0.098420        -2.6782 
  98   1.0000      -0.096875        -2.6361 
  99   1.0000      -0.089949        -2.4476 
 100   1.0000      -0.084244        -2.2924 
 101   1.0000      -0.081474        -2.2170 
 102   1.0000      -0.081054        -2.2056 
 103   1.0000      -0.070630        -1.9219 
 104   1.0000      -0.051155        -1.3920 
 105   1.0000      -0.039818        -1.0835 
 106   1.0000      -0.038829        -1.0566 
 107   1.0000      -0.036913        -1.0044 
 108   1.0000      -0.032908        -0.8955 
 109   1.0000      -0.014413        -0.3922 
 110   1.0000      -0.005606        -0.1525 
 111   1.0000      -0.004370        -0.1189 
 112   1.0000       0.004824         0.1313 
 113   1.0000       0.009384         0.2553 
 114   1.0000       0.015010         0.4084 
 115   1.0000       0.032398         0.8816 
 116   1.0000       0.058533         1.5928 
 117   0.0000       0.176376         4.7994 
 118   0.0000       0.190864         5.1937 
 119   0.0000       0.195947         5.3320 
 120   0.0000       0.196657         5.3513 
 121   0.0000       0.209887         5.7113 
 122   0.0000       0.211464         5.7542 
 123   0.0000       0.215120         5.8537 
 124   0.0000       0.223170         6.0728 
 125   0.0000       0.225989         6.1495 
 126   0.0000       0.232785         6.3344 
 127   0.0000       0.238703         6.4954 
 128   0.0000       0.241632         6.5751 
 129   0.0000       0.243142         6.6162 
 130   0.0000       0.244860         6.6630 
 131   0.0000       0.247943         6.7469 
 132   0.0000       0.250773         6.8239 
 133   0.0000       0.255706         6.9581 
 134   0.0000       0.257884         7.0174 
 135   0.0000       0.260980         7.1016 
 136   0.0000       0.267597         7.2817 
 137   0.0000       0.275576         7.4988 
 138   0.0000       0.276506         7.5241 
 139   0.0000       0.280121         7.6225 
 140   0.0000       0.283105         7.7037 
 141   0.0000       0.284857         7.7514 
 142   0.0000       0.286780         7.8037 
 143   0.0000       0.292182         7.9507 
 144   0.0000       0.305084         8.3017 
 145   0.0000       0.306435         8.3385 
 146   0.0000       0.309298         8.4164 
 147   0.0000       0.316552         8.6138 
 148   0.0000       0.324885         8.8406 
 149   0.0000       0.326671         8.8892 
 150   0.0000       0.346771         9.4361 
 151   0.0000       0.359241         9.7754 
 152   0.0000       0.367015         9.9870 
 153   0.0000       0.374336        10.1862 
 154   0.0000       0.389730        10.6051 
 155   0.0000       0.394877        10.7451 
 156   0.0000       0.395643        10.7660 
 157   0.0000       0.398063        10.8318 
 158   0.0000       0.402795        10.9606 
 159   0.0000       0.410568        11.1721 
 160   0.0000       0.418047        11.3756 
 161   0.0000       0.422717        11.5027 
 162   0.0000       0.425745        11.5851 
 163   0.0000       0.427996        11.6464 
 164   0.0000       0.447008        12.1637 
 165   0.0000       0.449867        12.2415 
 166   0.0000       0.455792        12.4027 
 167   0.0000       0.456041        12.4095 
 168   0.0000       0.459348        12.4995 
 169   0.0000       0.461729        12.5643 
 170   0.0000       0.470856        12.8126 
 171   0.0000       0.473877        12.8949 
 172   0.0000       0.480268        13.0688 
 173   0.0000       0.482973        13.1424 
 174   0.0000       0.488651        13.2969 
 175   0.0000       0.494685        13.4611 
 176   0.0000       0.498910        13.5760 
 177   0.0000       0.499711        13.5978 
 178   0.0000       0.501942        13.6585 
 179   0.0000       0.506666        13.7871 
 180   0.0000       0.510463        13.8904 
 181   0.0000       0.514174        13.9914 
 182   0.0000       0.520869        14.1736 
 183   0.0000       0.522401        14.2152 
 184   0.0000       0.534007        14.5311 
 185   0.0000       0.541814        14.7435 
 186   0.0000       0.548223        14.9179 
 187   0.0000       0.549513        14.9530 
 188   0.0000       0.552427        15.0323 
 189   0.0000       0.554656        15.0930 
 190   0.0000       0.556929        15.1548 
 191   0.0000       0.563352        15.3296 
 192   0.0000       0.571685        15.5563 
 193   0.0000       0.572730        15.5848 
 194   0.0000       0.573951        15.6180 
 195   0.0000       0.575895        15.6709 
 196   0.0000       0.580447        15.7948 
 197   0.0000       0.583126        15.8677 
 198   0.0000       0.585592        15.9348 
 199   0.0000       0.589738        16.0476 
 200   0.0000       0.592804        16.1310 
 201   0.0000       0.598345        16.2818 
 202   0.0000       0.602564        16.3966 
 203   0.0000       0.604446        16.4478 
 204   0.0000       0.606226        16.4962 
 205   0.0000       0.613025        16.6813 
 206   0.0000       0.616635        16.7795 
 207   0.0000       0.624586        16.9958 
 208   0.0000       0.626963        17.0605 
 209   0.0000       0.630361        17.1530 
 210   0.0000       0.634985        17.2788 
 211   0.0000       0.641594        17.4587 
 212   0.0000       0.645327        17.5602 
 213   0.0000       0.648953        17.6589 
 214   0.0000       0.652906        17.7665 
 215   0.0000       0.657798        17.8996 
 216   0.0000       0.662104        18.0168 
 217   0.0000       0.665562        18.1109 
 218   0.0000       0.670688        18.2503 
 219   0.0000       0.672026        18.2868 
 220   0.0000       0.676862        18.4183 
 221   0.0000       0.686217        18.6729 
 222   0.0000       0.693009        18.8577 
 223   0.0000       0.704874        19.1806 
 224   0.0000       0.706969        19.2376 
 225   0.0000       0.719402        19.5759 
 226   0.0000       0.728742        19.8301 
 227   0.0000       0.733198        19.9513 
 228   0.0000       0.746917        20.3246 
 229   0.0000       0.753224        20.4963 
 230   0.0000       0.760276        20.6882 
 231   0.0000       0.772187        21.0123 
 232   0.0000       0.776417        21.1274 
 233   0.0000       0.797882        21.7115 
 234   0.0000       0.800155        21.7733 
 235   0.0000       0.837647        22.7935 
 236   0.0000       0.859314        23.3831 
 237   0.0000       0.867130        23.5958 
 238   0.0000       0.872026        23.7290 
 239   0.0000       0.879998        23.9460 
 240   0.0000       0.886716        24.1288 
 241   0.0000       0.902772        24.5657 
 242   0.0000       0.906271        24.6609 
 243   0.0000       0.911829        24.8121 
 244   0.0000       0.914052        24.8726 
 245   0.0000       0.917479        24.9659 
 246   0.0000       0.927146        25.2289 
 247   0.0000       0.944673        25.7059 
 248   0.0000       0.962374        26.1875 
 249   0.0000       0.967066        26.3152 
 250   0.0000       0.976328        26.5672 
 251   0.0000       0.980219        26.6731 
 252   0.0000       0.982350        26.7311 
 253   0.0000       0.984450        26.7882 
 254   0.0000       0.989649        26.9297 
 255   0.0000       1.000054        27.2129 
 256   0.0000       1.002313        27.2743 
 257   0.0000       1.007166        27.4064 
 258   0.0000       1.021790        27.8043 
 259   0.0000       1.029768        28.0214 
 260   0.0000       1.032920        28.1072 
 261   0.0000       1.054967        28.7071 
 262   0.0000       1.056988        28.7621 
 263   0.0000       1.057840        28.7853 
 264   0.0000       1.071491        29.1568 
 265   0.0000       1.085593        29.5405 
 266   0.0000       1.097839        29.8737 
 267   0.0000       1.105697        30.0875 
 268   0.0000       1.121209        30.5096 
 269   0.0000       1.122217        30.5371 
 270   0.0000       1.122378        30.5414 
 271   0.0000       1.125968        30.6391 
 272   0.0000       1.131826        30.7985 
 273   0.0000       1.134465        30.8704 
 274   0.0000       1.138938        30.9921 
 275   0.0000       1.146851        31.2074 
 276   0.0000       1.153833        31.3974 
 277   0.0000       1.156082        31.4586 
 278   0.0000       1.178924        32.0801 
 279   0.0000       1.186268        32.2800 
 280   0.0000       1.199263        32.6336 
 281   0.0000       1.233537        33.5662 
 282   0.0000       1.239125        33.7183 
 283   0.0000       1.272995        34.6400 
 284   0.0000       1.274996        34.6944 
 285   0.0000       1.284922        34.9645 
 286   0.0000       1.300037        35.3758 
 287   0.0000       1.307915        35.5902 
 288   0.0000       1.314214        35.7616 
 289   0.0000       1.342745        36.5379 
 290   0.0000       1.354669        36.8624 
 291   0.0000       1.356897        36.9230 
 292   0.0000       1.384818        37.6828 
 293   0.0000       1.406081        38.2614 
 294   0.0000       1.414739        38.4970 
 295   0.0000       1.420082        38.6424 
 296   0.0000       1.440295        39.1924 
 297   0.0000       1.446017        39.3481 
 298   0.0000       1.468723        39.9660 
 299   0.0000       1.469042        39.9747 
 300   0.0000       1.482696        40.3462 
 301   0.0000       1.484309        40.3901 
 302   0.0000       1.486259        40.4432 
 303   0.0000       1.489128        40.5212 
 304   0.0000       1.497590        40.7515 
 305   0.0000       1.515344        41.2346 
 306   0.0000       1.520133        41.3649 
 307   0.0000       1.528679        41.5975 
 308   0.0000       1.538123        41.8545 
 309   0.0000       1.549446        42.1626 
 310   0.0000       1.565090        42.5883 
 311   0.0000       1.566967        42.6393 
 312   0.0000       1.603865        43.6434 
 313   0.0000       1.610552        43.8253 
 314   0.0000       1.617025        44.0015 
 315   0.0000       1.622225        44.1430 
 316   0.0000       1.631085        44.3841 
 317   0.0000       1.638201        44.5777 
 318   0.0000       1.654796        45.0293 
 319   0.0000       1.659909        45.1684 
 320   0.0000       1.667853        45.3846 
 321   0.0000       1.671599        45.4865 
 322   0.0000       1.675801        45.6009 
 323   0.0000       1.694264        46.1033 
 324   0.0000       1.705281        46.4031 
 325   0.0000       1.715962        46.6937 
 326   0.0000       1.723435        46.8971 
 327   0.0000       1.739380        47.3309 
 328   0.0000       1.744516        47.4707 
 329   0.0000       1.749420        47.6041 
 330   0.0000       1.754901        47.7533 
 331   0.0000       1.761203        47.9248 
 332   0.0000       1.774896        48.2974 
 333   0.0000       1.778947        48.4076 
 334   0.0000       1.794019        48.8177 
 335   0.0000       1.797585        48.9148 
 336   0.0000       1.808850        49.2213 
 337   0.0000       1.813198        49.3396 
 338   0.0000       1.832887        49.8754 
 339   0.0000       1.842211        50.1291 
 340   0.0000       1.843975        50.1771 
 341   0.0000       1.849066        50.3156 
 342   0.0000       1.853399        50.4335 
 343   0.0000       1.860206        50.6188 
 344   0.0000       1.869544        50.8729 
 345   0.0000       1.878082        51.1052 
 346   0.0000       1.882015        51.2122 
 347   0.0000       1.896460        51.6053 
 348   0.0000       1.910650        51.9914 
 349   0.0000       1.922376        52.3105 
 350   0.0000       1.927826        52.4588 
 351   0.0000       1.932875        52.5962 
 352   0.0000       1.942640        52.8619 
 353   0.0000       1.952870        53.1403 
 354   0.0000       1.954810        53.1931 
 355   0.0000       1.961514        53.3755 
 356   0.0000       1.968557        53.5671 
 357   0.0000       1.991231        54.1841 
 358   0.0000       2.000630        54.4399 
 359   0.0000       2.012089        54.7517 
 360   0.0000       2.046376        55.6847 
 361   0.0000       2.048839        55.7518 
 362   0.0000       2.060212        56.0612 
 363   0.0000       2.068100        56.2758 
 364   0.0000       2.074501        56.4500 
 365   0.0000       2.097894        57.0866 
 366   0.0000       2.110458        57.4285 
 367   0.0000       2.116967        57.6056 
 368   0.0000       2.125632        57.8414 
 369   0.0000       2.128002        57.9059 
 370   0.0000       2.156897        58.6922 
 371   0.0000       2.162642        58.8485 
 372   0.0000       2.167555        58.9822 
 373   0.0000       2.178972        59.2928 
 374   0.0000       2.193367        59.6845 
 375   0.0000       2.194693        59.7206 
 376   0.0000       2.206205        60.0339 
 377   0.0000       2.210105        60.1400 
 378   0.0000       2.212621        60.2085 
 379   0.0000       2.220398        60.4201 
 380   0.0000       2.232097        60.7384 
 381   0.0000       2.236772        60.8657 
 382   0.0000       2.242409        61.0191 
 383   0.0000       2.257637        61.4334 
 384   0.0000       2.265511        61.6477 
 385   0.0000       2.272227        61.8304 
 386   0.0000       2.285206        62.1836 
 387   0.0000       2.294094        62.4255 
 388   0.0000       2.296284        62.4851 
 389   0.0000       2.313850        62.9631 
 390   0.0000       2.321831        63.1802 
 391   0.0000       2.349345        63.9289 
 392   0.0000       2.355844        64.1058 
 393   0.0000       2.365773        64.3759 
 394   0.0000       2.383005        64.8449 
 395   0.0000       2.400961        65.3335 
 396   0.0000       2.403918        65.4139 
 397   0.0000       2.408533        65.5395 
 398   0.0000       2.411859        65.6300 
 399   0.0000       2.428621        66.0861 
 400   0.0000       2.442109        66.4532 
 401   0.0000       2.445909        66.5566 
 402   0.0000       2.470944        67.2378 
 403   0.0000       2.474790        67.3425 
 404   0.0000       2.511275        68.3353 
 405   0.0000       2.517108        68.4940 
 406   0.0000       2.531448        68.8842 
 407   0.0000       2.533126        68.9299 
 408   0.0000       2.547392        69.3181 
 409   0.0000       2.549956        69.3878 
 410   0.0000       2.553807        69.4926 
 411   0.0000       2.571110        69.9635 
 412   0.0000       2.597076        70.6700 
 413   0.0000       2.603616        70.8480 
 414   0.0000       2.606730        70.9327 
 415   0.0000       2.615160        71.1621 
 416   0.0000       2.619133        71.2702 
 417   0.0000       2.630263        71.5731 
 418   0.0000       2.636430        71.7409 
 419   0.0000       2.644099        71.9496 
 420   0.0000       2.667140        72.5766 
 421   0.0000       2.671513        72.6956 
 422   0.0000       2.679145        72.9032 
 423   0.0000       2.679888        72.9235 
 424   0.0000       2.700170        73.4753 
 425   0.0000       2.708046        73.6897 
 426   0.0000       2.761069        75.1325 
 427   0.0000       2.780264        75.6548 
 428   0.0000       2.792345        75.9836 
 429   0.0000       2.803900        76.2980 
 430   0.0000       2.820454        76.7485 
 431   0.0000       2.821744        76.7836 
 432   0.0000       2.838075        77.2279 
 433   0.0000       2.856123        77.7191 
 434   0.0000       2.864497        77.9469 
 435   0.0000       2.888871        78.6102 
 436   0.0000       2.893194        78.7278 
 437   0.0000       2.909713        79.1773 
 438   0.0000       2.910698        79.2041 
 439   0.0000       2.914812        79.3161 
 440   0.0000       2.920202        79.4627 
 441   0.0000       2.926296        79.6286 
 442   0.0000       2.945775        80.1586 
 443   0.0000       2.951071        80.3027 
 444   0.0000       2.963963        80.6535 
 445   0.0000       3.002565        81.7039 
 446   0.0000       3.012046        81.9619 
 447   0.0000       3.025022        82.3150 
 448   0.0000       3.051336        83.0311 
 449   0.0000       3.055463        83.1434 
 450   0.0000       3.090770        84.1041 
 451   0.0000       3.189226        86.7832 
 452   0.0000       3.226349        87.7934 
 453   0.0000       3.272173        89.0403 
 454   0.0000       3.332822        90.6907 
 455   0.0000       3.365174        91.5711 
 456   0.0000       3.398065        92.4661 
 457   0.0000       3.420308        93.0713 
 458   0.0000       3.431701        93.3813 
 459   0.0000       3.444221        93.7220 
 460   0.0000       3.451146        93.9105 
 461   0.0000       3.480519        94.7097 
 462   0.0000       3.493353        95.0590 
 463   0.0000       3.514901        95.6453 
 464   0.0000       3.523156        95.8700 
 465   0.0000       3.540407        96.3394 
 466   0.0000       3.574275        97.2610 
 467   0.0000       3.584215        97.5315 
 468   0.0000       3.586943        97.6057 
 469   0.0000       3.800727       103.4230 
 470   0.0000       3.843078       104.5755 
 471   0.0000       3.860091       105.0384 
 472   0.0000       3.993417       108.6664 
 473   0.0000       4.214648       114.6864 
 474   0.0000       4.541333       123.5760 
 475   0.0000       4.558355       124.0392 
 476   0.0000       4.561760       124.1318 
 477   0.0000       4.589924       124.8982 
 478   0.0000       4.618047       125.6634 
 479   0.0000       4.618445       125.6743 
 480   0.0000       5.201226       141.5325 
 481   0.0000       7.006948       190.6688 
 482   0.0000       7.054041       191.9502 
 483   0.0000       7.057853       192.0539 
 484   0.0000      18.721049       509.4256 
 485   0.0000      18.766395       510.6596 
 486   0.0000      19.005719       517.1719 
 487   0.0000      19.020915       517.5854 
 488   0.0000      19.059447       518.6339 
 489   0.0000      19.066946       518.8380 
 490   0.0000      19.251556       523.8615 
 491   0.0000      19.331725       526.0430 
 492   0.0000      19.777598       538.1758 
 493   0.0000      21.668977       589.6428 
[...]
Total number of batches                      ...      237
Average number of points per batch           ...       59
Average number of grid points per atom       ...      437

Memory available               ... 849.9 MB
Memory needed per perturbation ...  34.9 MB
Perturbations treated per batch... 3
Number of batches              ... 1
     CP-SCF ITERATION   0:   4.3944e-02 (   5.4 sec   0/  3 done)
     CP-SCF ITERATION   1:   1.5505e-03 (   5.6 sec   0/  3 done)
     CP-SCF ITERATION   2:   3.5227e-04 (   5.6 sec   3/  3 done)
                    *** THE CP-SCF HAS CONVERGED ***

Forming final perturbed densities           ... done
Transforming perturbed density to AO basis  ... done

 Raw HFC matrix (all values in MHz): 
 -----------------------------------
                 0.3244              -0.3895              -0.5304
                -0.3893              -0.2733               0.2497
                -0.5310               0.2499              -0.1408

 A(FC)          -0.0291              -0.0291              -0.0291
 A(SD)          -0.4352              -0.4616               0.8968
 A(ORB+DIA)      0.0027               0.0026              -0.0076    A(PC) =  -0.0008
 A(ORB)          0.0027               0.0026              -0.0078    A(PC) =  -0.0008
 A(DIA)         -0.0000              -0.0001               0.0002    A(PC) =   0.0000
             ----------           ----------           ----------
 A(Tot)         -0.4616              -0.4882               0.8601    A(iso)=   -0.0299
 Orientation: 
  X           0.2389539           -0.5841074           -0.7757059
  Y           0.9172098           -0.1264905            0.3777913
  Z          -0.3187901           -0.8017598            0.5055236

Notes:  (1) The A matrix conforms to the "SAI" spin Hamiltonian convention.
        (2) Tensor is right-handed.

 Raw EFG matrix (all values in a.u.**-3):
 -----------------------------------
            -0.1131       0.0568      -0.0441
             0.0568       0.1064      -0.1862
            -0.0441      -0.1862       0.0067

 V(El)       0.4547       0.5712      -1.0259
 V(Nuc)     -0.5815      -0.7074       1.2889
         ----------   ----------   ----------
 V(Tot)     -0.1268      -0.1362       0.2630 
 Orientation: 
  X       0.9814085    0.0391405   -0.1878972
  Y      -0.1731805    0.6026194   -0.7790112
  Z       0.0827396    0.7970683    0.5981941

Note: Tensor is right-handed


 Quadrupole tensor eigenvalues (in MHz;Q= 0.0029 I=  1.0)
  e**2qQ            =     0.176621 MHz 
  e**2qQ/(4I*(2I-1))=     0.044155 MHz 
  eta               =     0.035634
  NOTE: the diagonal representation of the SH term I*Q*I = e**2qQ/(4I(2I-1))*[-(1-eta),-(1+eta),2]

 RHO(0)=      0.432136029 a.u.**-3

 -----------------------------------------------------------
 Nucleus  31H : A:ISTP=    1 I=  0.5 P=533.5514 MHz/au**3
                Q:ISTP=    2 I=  1.0 Q=  0.0029 barn     
 -----------------------------------------------------------
 Solving for nuclear perturbation:
Forming RHS of the CP-SCF equations         ... 
Calc. nucleus orbit integrals (SHARK)       ... done

------------------------------------------------------------------------------
                           ORCA CP-SCF CALCULATION
------------------------------------------------------------------------------

Input orbitals are from        ... input_61.gbw
Input Perturbation             ... input_61.pin.tmp
Wavefunction output            ... input_61.pout.tmp
Perturbation mode              ... Imaginary perturbation
Solver                         ... POPLE
Max. number of iterations      ... 64
Convergence tolerance          ... 1.000e-03
Integral handling              ... Direct
DFT GridXC                     ... 1
COSX GridX                     ... 1
COSX IntAccX                   ... 3.067
COSX Algorithm                 ... Auto
Number of perturbations        ... 3
Number of operators            ... 2
Orbital ranges used for CP-SCF:
 Operator 0:  Orbitals   0...116  to 117...516
 Operator 1:  Orbitals   0...115  to 116...516
Variables per perturbation     ... 93316
DFT calculation                         ... on
XC functional terms                     ... off
Hybrid DFT                              ... on
   Exchange mixing (SCF)                ...  0.200
   Exchange mixing (CP-SCF)             ...  0.200
   GGA exch. scaling(SCF)               ...  0.720
   GGA exch. scaling (CP-SCF)           ...  0.720
   GGA corr. scaling (SCF)              ...  0.810
   GGA corr. scaling (CP-SCF)           ...  0.810

CP-SCF GRID
-----------

General Integration Accuracy     IntAcc      ... 3.467
Radial Grid Type                 RadialGrid  ... OptM3 with GC (2021)
Angular Grid (max. ang.)         AngularGrid ... 1 (Lebedev-50)
Angular grid pruning method      GridPruning ... 4 (adaptive)
Weight generation scheme         WeightScheme... Becke
Basis function cutoff            BFCut       ... 1.0000e-10
Integration weight cutoff        WCut        ... 1.0000e-14
Angular grids for H and He will be reduced by one unit
Partially contracted basis set               ... off
Rotationally invariant grid construction     ... off

Total number of grid points                  ...    31442
Total number of batches                      ...      509
Average number of points per batch           ...       61
Average number of grid points per atom       ...      983

CP-SCF GRIDX
------------

General Integration Accuracy     IntAcc      ... 3.067
Radial Grid Type                 RadialGrid  ... OptM3 with GC (2021)
Angular Grid (max. ang.)         AngularGrid ... 1 (Lebedev-50)
Angular grid pruning method      GridPruning ... 4 (adaptive)
Weight generation scheme         WeightScheme... Becke
Basis function cutoff            BFCut       ... 1.0000e-10
Integration weight cutoff        WCut        ... 1.0000e-14
Angular grids for H and He will be reduced by one unit
Partially contracted basis set               ... on
Rotationally invariant grid construction     ... off

Total number of grid points                  ...    13986
Total number of batches                      ...      237
Average number of points per batch           ...       59
Average number of grid points per atom       ...      437

Memory available               ... 846.8 MB
Memory needed per perturbation ...  34.9 MB
Perturbations treated per batch... 3
Number of batches              ... 1
     CP-SCF ITERATION   0:   4.0308e-02 (   5.4 sec   0/  3 done)
     CP-SCF ITERATION   1:   1.0478e-03 (   5.6 sec   0/  3 done)
     CP-SCF ITERATION   2:   1.9077e-04 (   5.6 sec   3/  3 done)
                    *** THE CP-SCF HAS CONVERGED ***

Forming final perturbed densities           ... done
Transforming perturbed density to AO basis  ... done

 Raw HFC matrix (all values in MHz): 
 -----------------------------------
                 0.1092              -0.1209              -0.3294
                -0.1203              -0.2350               0.1095
                -0.3301               0.1100               0.0124

 A(FC)          -0.0376              -0.0376              -0.0376
 A(SD)          -0.2332              -0.2420               0.4752
 A(ORB+DIA)      0.0013               0.0017              -0.0038    A(PC) =  -0.0003
 A(ORB)          0.0014               0.0017              -0.0039    A(PC) =  -0.0003
 A(DIA)         -0.0001              -0.0000               0.0001    A(PC) =   0.0000
             ----------           ----------           ----------
 A(Tot)         -0.2694              -0.2778               0.4338    A(iso)=   -0.0378
 Orientation: 
  X          -0.6266219            0.2607111           -0.7344213
  Y          -0.5963954           -0.7670393            0.2365655
  Z          -0.5016547            0.5862427            0.6361305

Notes:  (1) The A matrix conforms to the "SAI" spin Hamiltonian convention.
        (2) Tensor is right-handed.

 Raw EFG matrix (all values in a.u.**-3):
 -----------------------------------
            -0.0311      -0.0590      -0.1067
            -0.0590      -0.0579       0.0987
            -0.1067       0.0987       0.0891

 V(El)       0.5137       0.7404      -1.2541
 V(Nuc)     -0.6071      -0.8492       1.4564
         ----------   ----------   ----------
 V(Tot)     -0.0934      -0.1088       0.2023 
 Orientation: 
  X      -0.8467339    0.2622730    0.4628764
  Y       0.0615940    0.9125175   -0.4043735
  Z      -0.5284391   -0.3138863   -0.7888140

Note: Tensor is right-handed


 Quadrupole tensor eigenvalues (in MHz;Q= 0.0029 I=  1.0)
  e**2qQ            =     0.135832 MHz 
  e**2qQ/(4I*(2I-1))=     0.033958 MHz 
  eta               =     0.076151
  NOTE: the diagonal representation of the SH term I*Q*I = e**2qQ/(4I(2I-1))*[-(1-eta),-(1+eta),2]

 RHO(0)=      0.413823493 a.u.**-3

 -----------------------------------------------------------
 Nucleus   0V : A:ISTP=   51 I=  3.5 P=140.5173 MHz/au**3
                Q:ISTP=   51 I=  3.5 Q= -0.0430 barn     
 -----------------------------------------------------------
 Solving for nuclear perturbation:
Forming RHS of the CP-SCF equations         ... 
Calc. nucleus orbit integrals (SHARK)       ... done

------------------------------------------------------------------------------
                           ORCA CP-SCF CALCULATION
------------------------------------------------------------------------------

Input orbitals are from        ... input_61.gbw
Input Perturbation             ... input_61.pin.tmp
Wavefunction output            ... input_61.pout.tmp
Perturbation mode              ... Imaginary perturbation
Solver                         ... POPLE
Max. number of iterations      ... 64
Convergence tolerance          ... 1.000e-03
Integral handling              ... Direct
DFT GridXC                     ... 1
COSX GridX                     ... 1
COSX IntAccX                   ... 3.067
COSX Algorithm                 ... Auto
Number of perturbations        ... 3
Number of operators            ... 2
Orbital ranges used for CP-SCF:
 Operator 0:  Orbitals   0...116  to 117...516
 Operator 1:  Orbitals   0...115  to 116...516
Variables per perturbation     ... 93316
DFT calculation                         ... on
XC functional terms                     ... off
Hybrid DFT                              ... on
   Exchange mixing (SCF)                ...  0.200
   Exchange mixing (CP-SCF)             ...  0.200
   GGA exch. scaling(SCF)               ...  0.720
   GGA exch. scaling (CP-SCF)           ...  0.720
   GGA corr. scaling (SCF)              ...  0.810
   GGA corr. scaling (CP-SCF)           ...  0.810

CP-SCF GRID
-----------

General Integration Accuracy     IntAcc      ... 3.467
Radial Grid Type                 RadialGrid  ... OptM3 with GC (2021)
Angular Grid (max. ang.)         AngularGrid ... 1 (Lebedev-50)
Angular grid pruning method      GridPruning ... 4 (adaptive)
Weight generation scheme         WeightScheme... Becke
Basis function cutoff            BFCut       ... 1.0000e-10
Integration weight cutoff        WCut        ... 1.0000e-14
Angular grids for H and He will be reduced by one unit
Partially contracted basis set               ... off
Rotationally invariant grid construction     ... off

Total number of grid points                  ...    31442
Total number of batches                      ...      509
Average number of points per batch           ...       61
Average number of grid points per atom       ...      983

CP-SCF GRIDX
------------

General Integration Accuracy     IntAcc      ... 3.067
Radial Grid Type                 RadialGrid  ... OptM3 with GC (2021)
Angular Grid (max. ang.)         AngularGrid ... 1 (Lebedev-50)
Angular grid pruning method      GridPruning ... 4 (adaptive)
Weight generation scheme         WeightScheme... Becke
Basis function cutoff            BFCut       ... 1.0000e-10
Integration weight cutoff        WCut        ... 1.0000e-14
Angular grids for H and He will be reduced by one unit
Partially contracted basis set               ... on
Rotationally invariant grid construction     ... off

Total number of grid points                  ...    13986
Total number of batches                      ...      237
Average number of points per batch           ...       59
Average number of grid points per atom       ...      437

Memory available               ... 843.7 MB
Memory needed per perturbation ...  34.9 MB
Perturbations treated per batch... 3
Number of batches              ... 1
     CP-SCF ITERATION   0:   1.1425e+01 (   5.9 sec   0/  3 done)
     CP-SCF ITERATION   1:   1.8599e+00 (   5.6 sec   0/  3 done)
     CP-SCF ITERATION   2:   3.1759e-01 (   5.6 sec   0/  3 done)
     CP-SCF ITERATION   3:   4.0170e-02 (   5.6 sec   0/  3 done)
     CP-SCF ITERATION   4:   9.4319e-03 (   5.6 sec   0/  3 done)
     CP-SCF ITERATION   5:   2.1209e-03 (   5.6 sec   0/  3 done)
     CP-SCF ITERATION   6:   3.1754e-04 (   5.6 sec   3/  3 done)
                    *** THE CP-SCF HAS CONVERGED ***

Forming final perturbed densities           ... done
Transforming perturbed density to AO basis  ... done

 Raw HFC matrix (all values in MHz): 
 -----------------------------------
              -163.8709             129.9326             -22.7832
               129.8863            -280.4730              47.1670
               -22.7503              47.1564             -85.2530

 A(FC)        -165.4235            -165.4235            -165.4235
 A(SD)         100.8088              88.5509            -189.3598
 A(ORB+DIA)     -6.5239              -7.6635             -19.1390    A(PC) = -11.1088
 A(ORB)         -6.5235              -7.6639             -19.1389    A(PC) = -11.1088
 A(DIA)         -0.0004               0.0005              -0.0001    A(PC) =  -0.0000
             ----------           ----------           ----------
 A(Tot)        -71.1386             -84.5361            -373.9223    A(iso)= -176.5323
 Orientation: 
  X          -0.4254452           -0.7324489           -0.5315214
  Y          -0.4420261           -0.3443166            0.8282868
  Z          -0.7896894            0.5873369           -0.1772737

Notes:  (1) The A matrix conforms to the "SAI" spin Hamiltonian convention.
        (2) Tensor is right-handed.

 Raw EFG matrix (all values in a.u.**-3):
 -----------------------------------
            -0.0312      -0.2008       0.0864
            -0.2008       0.1600      -0.0351
             0.0864      -0.0351      -0.1288

 V(El)       0.1389      -0.4660       0.3271
 V(Nuc)     -0.2350       0.2616      -0.0267
         ----------   ----------   ----------
 V(Tot)     -0.0961      -0.2043       0.3004 
 Orientation: 
  X       0.4730346    0.6937634   -0.5430752
  Y       0.4726909    0.3203332    0.8209446
  Z       0.7435063   -0.6450418   -0.1764070

Note: Tensor is right-handed


 Quadrupole tensor eigenvalues (in MHz;Q=-0.0430 I=  3.5)
  e**2qQ            =    -3.035386 MHz 
  e**2qQ/(4I*(2I-1))=    -0.036136 MHz 
  eta               =     0.360289
  NOTE: the diagonal representation of the SH term I*Q*I = e**2qQ/(4I(2I-1))*[-(1-eta),-(1+eta),2]

 RHO(0)=   8115.215882292 a.u.**-3


--------------------------------------------------------------------------------
----------------------------------------------------------------------------
                           ORCA EULER ANGLE PROGRAM
----------------------------------------------------------------------------

Only g-tensor available        -->  using g-tensor as reference tensor

Reference tensor               ...  g

g-tensor ordering              ...  |g_min> --> |gx>
                                    |g_mid> --> |gy>
                                    |g_max> --> |gz>

A- and EFG-tensor ordering     ...  the axes |Ax>, |Qx>, |Ay>, etc. are assigned
                                    such that the Euler rotation is minimal. You
                                    can find the respective eigenvalues as Ax,
                                    EFGx, Ay, etc. in the tables below.
                                    The relation of |Ax>, |Ay>,  etc. to Amin, Amid, etc.
                                    (as printed in the ORCA EPR/NMR CALCULATION Output)
                                    is obtained in the detailed printout.

Euler rotation around          ...  z - y - z
   First rotation              -->  by alpha around z
   Second rotation             -->  by beta around y'
   Third rotation              -->  by gamma around z''
   Positive / Negative angle   -->  clockwise / counterclockwise rotation

Plot EFG-tensors                    (-)
Plot HFC-tensors                    (-)
Detailed Printout                   (-)

-------------------------------------------------------------------------
          Euler rotation of hyperfine tensor to g-tensor
-------------------------------------------------------------------------

-------------------------------------------------------------------
 Atom  |   Alpha    Beta    Gamma   |   Ax       Ay       Az 
       |          [degrees]         |           [MHz]         
-------------------------------------------------------------------
 19H       40.1     24.5      3.4      -0.49     0.90    -0.53
 20H      115.7     22.8    -88.9      -0.27     0.50    -0.26
 21H       10.9      5.6     22.3      -0.12     0.46    -0.12
 22H       93.2      1.5    -73.9      -0.22     0.45    -0.22
 23H      -62.6     20.0     89.6      -0.27     0.49    -0.26
 24H     -146.2     24.1   -171.0      -0.49     0.90    -0.53
 26H      -96.6     20.1     71.1      -0.26     0.57    -0.24
 27H      -31.1     28.5    -11.1      -0.53     0.94    -0.58
 28H       -0.6     42.2    -18.1      -0.22     0.45    -0.22
 29H       14.7     14.5    -46.8      -0.11     0.48    -0.11
 30H      133.6     20.3   -176.4      -0.46     0.86    -0.49
 31H       51.7     23.4    -79.1      -0.28     0.43    -0.27
  0V       83.8      1.3    -83.6    -373.92   -84.54   -71.14
-------------------------------------------------------------------


-------------------------------------------------------------------------------
    Euler rotation of Electric Field Gradient (EFG) tensor to g-tensor
-------------------------------------------------------------------------------

-------------------------------------------------------------------
 Atom  |   Alpha    Beta    Gamma  |   EFGx     EFGy     EFGz
       |          [degrees]        |         [a.u.**-3]       
-------------------------------------------------------------------
 19H        0.1     39.6    -33.3     -0.15     0.29    -0.14
 20H     -145.4     36.5    115.8     -0.14    -0.15     0.29
 21H      121.9      1.2   -140.6      0.28    -0.14    -0.14
 22H       28.7      3.2    -63.7     -0.15     0.29    -0.14
 23H       34.3     41.1    -63.9     -0.14    -0.15     0.29
 24H      177.5     43.6    147.9     -0.15     0.29    -0.14
 26H      112.1     27.7    -98.9     -0.10    -0.11     0.21
 27H       11.8     29.8     17.4     -0.14     0.27    -0.13
 28H      -13.3     20.6     47.8     -0.14     0.27    -0.13
 29H      146.0     19.5   -125.4      0.19    -0.10    -0.09
 30H        9.5     23.6     32.2     -0.13     0.26    -0.14
 31H      112.1     41.8   -152.7     -0.11     0.20    -0.09
  0V       84.2      5.4    -83.4      0.30    -0.20    -0.10
-------------------------------------------------------------------


Maximum memory used throughout the entire EPRNMR-calculation: 245.0 MB

Timings for individual modules:

Sum of individual times         ...     2609.954 sec (=  43.499 min)
GTO integral calculation        ...        1.167 sec (=   0.019 min)   0.0 %
Spin-Orbit-Coupling Matrices    ...       10.876 sec (=   0.181 min)   0.4 %
SCF iterations                  ...      232.129 sec (=   3.869 min)   8.9 %
EPR/NMR calculation             ...     2365.781 sec (=  39.430 min)  90.6 %
                             ****ORCA TERMINATED NORMALLY****
TOTAL RUN TIME: 0 days 0 hours 43 minutes 30 seconds 904 msec
