
                                 *****************
                                 * O   R   C   A *
                                 *****************

                                            #,                                       
                                            ###                                      
                                            ####                                     
                                            #####                                    
                                            ######                                   
                                           ########,                                 
                                     ,,################,,,,,                         
                               ,,#################################,,                 
                          ,,##########################################,,             
                       ,#########################################, ''#####,          
                    ,#############################################,,   '####,        
                  ,##################################################,,,,####,       
                ,###########''''           ''''###############################       
              ,#####''   ,,,,##########,,,,          '''####'''          '####       
            ,##' ,,,,###########################,,,                        '##       
           ' ,,###''''                  '''############,,,                           
         ,,##''                                '''############,,,,        ,,,,,,###''
      ,#''                                            '''#######################'''  
     '                                                          ''''####''''         
             ,#######,   #######,   ,#######,      ##                                
            ,#'     '#,  ##    ##  ,#'     '#,    #''#        ######   ,####,        
            ##       ##  ##   ,#'  ##            #'  '#       #        #'  '#        
            ##       ##  #######   ##           ,######,      #####,   #    #        
            '#,     ,#'  ##    ##  '#,     ,#' ,#      #,         ##   #,  ,#        
             '#######'   ##     ##  '#######'  #'      '#     #####' # '####'        



                  #######################################################
                  #                        -***-                        #
                  #          Department of theory and spectroscopy      #
                  #    Directorship and core code : Frank Neese         #
                  #        Max Planck Institute fuer Kohlenforschung    #
                  #                Kaiser Wilhelm Platz 1               #
                  #                 D-45470 Muelheim/Ruhr               #
                  #                      Germany                        #
                  #                                                     #
                  #                  All rights reserved                #
                  #                        -***-                        #
                  #######################################################


                         Program Version 5.0.4 -  RELEASE  -


 With contributions from (in alphabetic order):
   Daniel Aravena         : Magnetic Suceptibility
   Michael Atanasov       : Ab Initio Ligand Field Theory (pilot matlab implementation)
   Alexander A. Auer      : GIAO ZORA, VPT2 properties, NMR spectrum
   Ute Becker             : Parallelization
   Giovanni Bistoni       : ED, misc. LED, open-shell LED, HFLD
   Martin Brehm           : Molecular dynamics
   Dmytro Bykov           : SCF Hessian
   Vijay G. Chilkuri      : MRCI spin determinant printing, contributions to CSF-ICE
   Dipayan Datta          : RHF DLPNO-CCSD density
   Achintya Kumar Dutta   : EOM-CC, STEOM-CC
   Dmitry Ganyushin       : Spin-Orbit,Spin-Spin,Magnetic field MRCI
   Miquel Garcia          : C-PCM and meta-GGA Hessian, CC/C-PCM, Gaussian charge scheme
   Yang Guo               : DLPNO-NEVPT2, F12-NEVPT2, CIM, IAO-localization
   Andreas Hansen         : Spin unrestricted coupled pair/coupled cluster methods
   Benjamin Helmich-Paris : MC-RPA, TRAH-SCF, COSX integrals
   Lee Huntington         : MR-EOM, pCC
   Robert Izsak           : Overlap fitted RIJCOSX, COSX-SCS-MP3, EOM
   Marcus Kettner         : VPT2
   Christian Kollmar      : KDIIS, OOCD, Brueckner-CCSD(T), CCSD density, CASPT2, CASPT2-K
   Simone Kossmann        : Meta GGA functionals, TD-DFT gradient, OOMP2, MP2 Hessian
   Martin Krupicka        : Initial AUTO-CI
   Lucas Lang             : DCDCAS
   Marvin Lechner         : AUTO-CI (C++ implementation), FIC-MRCC
   Dagmar Lenk            : GEPOL surface, SMD
   Dimitrios Liakos       : Extrapolation schemes; Compound Job, initial MDCI parallelization
   Dimitrios Manganas     : Further ROCIS development; embedding schemes
   Dimitrios Pantazis     : SARC Basis sets
   Anastasios Papadopoulos: AUTO-CI, single reference methods and gradients
   Taras Petrenko         : DFT Hessian,TD-DFT gradient, ASA, ECA, R-Raman, ABS, FL, XAS/XES, NRVS
   Peter Pinski           : DLPNO-MP2, DLPNO-MP2 Gradient
   Christoph Reimann      : Effective Core Potentials
   Marius Retegan         : Local ZFS, SOC
   Christoph Riplinger    : Optimizer, TS searches, QM/MM, DLPNO-CCSD(T), (RO)-DLPNO pert. Triples
   Tobias Risthaus        : Range-separated hybrids, TD-DFT gradient, RPA, STAB
   Michael Roemelt        : Original ROCIS implementation
   Masaaki Saitow         : Open-shell DLPNO-CCSD energy and density
   Barbara Sandhoefer     : DKH picture change effects
   Avijit Sen             : IP-ROCIS
   Kantharuban Sivalingam : CASSCF convergence, NEVPT2, FIC-MRCI
   Bernardo de Souza      : ESD, SOC TD-DFT
   Georgi Stoychev        : AutoAux, RI-MP2 NMR, DLPNO-MP2 response
   Willem Van den Heuvel  : Paramagnetic NMR
   Boris Wezisla          : Elementary symmetry handling
   Frank Wennmohs         : Technical directorship


 We gratefully acknowledge several colleagues who have allowed us to
 interface, adapt or use parts of their codes:
   Stefan Grimme, W. Hujo, H. Kruse, P. Pracht,  : VdW corrections, initial TS optimization,
                  C. Bannwarth, S. Ehlert          DFT functionals, gCP, sTDA/sTD-DF
   Ed Valeev, F. Pavosevic, A. Kumar             : LibInt (2-el integral package), F12 methods
   Garnet Chan, S. Sharma, J. Yang, R. Olivares  : DMRG
   Ulf Ekstrom                                   : XCFun DFT Library
   Mihaly Kallay                                 : mrcc  (arbitrary order and MRCC methods)
   Jiri Pittner, Ondrej Demel                    : Mk-CCSD
   Frank Weinhold                                : gennbo (NPA and NBO analysis)
   Christopher J. Cramer and Donald G. Truhlar   : smd solvation model
   Lars Goerigk                                  : TD-DFT with DH, B97 family of functionals
   V. Asgeirsson, H. Jonsson                     : NEB implementation
   FAccTs GmbH                                   : IRC, NEB, NEB-TS, DLPNO-Multilevel, CI-OPT
                                                   MM, QMMM, 2- and 3-layer-ONIOM, Crystal-QMMM,
                                                   LR-CPCM, SF, NACMEs, symmetry and pop. for TD-DFT,
                                                   nearIR, NL-DFT gradient (VV10), updates on ESD,
                                                   ML-optimized integration grids
   S Lehtola, MJT Oliveira, MAL Marques          : LibXC Library
   Liviu Ungur et al                             : ANISO software


 Your calculation uses the libint2 library for the computation of 2-el integrals
 For citations please refer to: http://libint.valeyev.net

 Your ORCA version has been built with support for libXC version: 5.1.0
 For citations please refer to: https://tddft.org/programs/libxc/

 This ORCA versions uses:
   CBLAS   interface :  Fast vector & matrix operations
   LAPACKE interface :  Fast linear algebra routines
   SCALAPACK package :  Parallel linear algebra routines
   Shared memory     :  Shared parallel matrices
   BLAS/LAPACK       :  OpenBLAS 0.3.15  USE64BITINT DYNAMIC_ARCH NO_AFFINITY Prescott SINGLE_THREADED
        Core in use  :  Prescott
   Copyright (c) 2011-2014, The OpenBLAS Project


================================================================================

----- Orbital basis set information -----
Your calculation utilizes the basis: TZVP 

The basis set includes element-specific modifications.

Your calculation utilizes the basis: CP(PPP) 

----- AuxJ basis set information -----
Your calculation utilizes the auxiliary basis: def2/J
   F. Weigend, Phys. Chem. Chem. Phys. 8, 1057 (2006).

================================================================================
                                        WARNINGS
                       Please study these warnings very carefully!
================================================================================


WARNING: your system is open-shell and RHF/RKS was chosen
  ===> : WILL SWITCH to UHF/UKS


INFO   : the flag for use of the SHARK integral package has been found!

================================================================================
                                       INPUT FILE
================================================================================
NAME = input_72.inp
|  1> ! nofrozencore ReducedPop printbasis
|  2> ! B3LYP TZVP
|  3> 
|  4> %basis
|  5> newgto V "CP(PPP)" end
|  6> end
|  7> 
|  8> %pal
|  9> nprocs 4
| 10> end
| 11> 
| 12> % sym SymThresh 1e-2 end
| 13> * xyz -2 2 
| 14> V 0.9900749979631688 0.021276878186253297 0.5132495730420811
| 15> S -0.7199185269839748 0.5946732175439468 2.17243953811059
| 16> S 0.11371026711040211 -2.260903955265731 0.6581739868541258
| 17> S 0.5266733221878064 2.2752396502160654 -0.3259607838656918
| 18> S 1.3895357290733232 -0.5800414803016523 -1.8289959145094163
| 19> O 2.4048015029018637 0.05427094504827469 1.2526493955798272
| 20> C 0.721033427545769 -3.02635819330818 -0.8398970502317834
| 21> C 1.2247344965527636 -2.3607433974940046 -1.824748359897088
| 22> C -0.8857119003009285 2.331803684218942 2.062677627901725
| 23> C -0.3404732547530903 3.067228671051786 0.9700145532473881
| 24> S 0.5268925998444729 -4.83815115885816 -0.8409599246656002
| 25> S 1.812406096271195 -3.132557367186969 -3.36732686192678
| 26> S -0.5403549900502765 4.83801357929386 0.8345295613158221
| 27> S -1.8046645176423606 3.132637341024398 3.370188421207819
| 28> C 0.2508895899657851 -3.791415855848287 -4.102326684397283
| 29> C -2.3475279267849127 5.041175729299539 0.5143811924897715
| 30> C -0.7356333592052379 -5.10310878934347 -2.162869515240999
| 31> C -3.3514852238056703 3.687651321290557 2.528751360892221
| 32> C -0.24739212371396443 -5.126991054050085 -3.594830876723367
| 33> H -1.641758546077567 -4.496420075618354 -1.9052077991049954
| 34> H -1.3635506015512098 -5.978991712319627 -1.84462473885437
| 35> H -1.1631006967684197 -5.316094646583543 -4.1884449929466205
| 36> H 0.6230275355461846 -5.799784142551002 -3.607039831258617
| 37> H 0.3492434001497606 -3.6970368188211293 -5.217700214100728
| 38> H -0.4721594743775302 -2.9411678376383343 -4.201192032929033
| 39> C -3.2397038251820196 5.026472500854961 1.771912118246519
| 40> H -4.000602169970372 3.943939402982568 3.3902487930778555
| 41> H -3.5213292392503726 2.954126001451724 1.7131643253264535
| 42> H -3.004253136636115 5.8668011295868965 2.453633075136333
| 43> H -4.254297142421222 5.444804748593284 1.5473934249830095
| 44> H -2.656252082508572 4.119261662198253 -0.020800952876161377
| 45> H -2.404309556249722 6.09708789821686 0.18191463928383356
| 46> * 
| 47> 
| 48> % eprnmr
| 49> gtensor true
| 50> Nuclei = all H {aiso,adip,aorb,fgrad,rho}
| 51> Nuclei = all V {aiso,adip,aorb,fgrad,rho}
| 52> end
| 53> 
| 54>                          ****END OF INPUT****
================================================================================

------------------------------------------------------------------------------
                            SYMMETRY HANDLING SETUP
------------------------------------------------------------------------------

------------------
SYMMETRY DETECTION
------------------
The point group will now be determined using a tolerance of 1.0000e-02.
Splitting atom subsets according to nuclear charge, mass and basis set.
Splitting atom subsets according to distance from the molecule's center.
Identifying relative distance patterns of the atoms.
Splitting atom subsets according to atoms' relative distance patterns.
Bring atoms of each subset into input order.
The molecule is neither linear nor planar.
There is at least one atom subset not centered around the molecule's center.
The molecule does not have a center of inversion.
Analyzing the first atom subset for its symmetry.
The subset is an off-center atom pair.
Testing point group C2v.
Test failed.
Testing point group C2.
Test failed.
Testing point group Cs.
Test failed.
Testing point group Cs.
Test failed.
No testing is needed for point group C1.
This point group has been found:    C1
Largest non-degenerate subgroup:    C1


Mass-centered symmetry-perfected Cartesians (point group C1):

Atom          Symmetry-perfected Cartesians (x, y, z; au)
  0       1.872990726596    0.040112700741    0.970870440188
  1      -1.358428726333    1.123674748320    4.106285078318
  2       0.216901391857   -4.272584062568    1.244737892412
  3       0.997288469380    4.299485055931   -0.615007303118
  4       2.627862109650   -1.096214316100   -3.455332069697
  5       4.546436375330    0.102462451154    2.368133608254
  6       1.364575839867   -5.719082940517   -1.586206096840
  7       2.316432913654   -4.461253265743   -3.447305354741
  8      -1.671732796721    4.406375589226    3.898865128087
  9      -0.641381079005    5.796127406383    1.834031160342
 10       0.997702844099   -9.142875456772   -1.588214638435
 11       3.426971293805   -5.919770294797   -6.362356263652
 12      -1.019102817890    9.142425925041    1.578001630335
 13      -3.408301573546    5.919731879415    6.369702444582
 14       0.476132743290   -7.164832399376   -7.751304636602
 15      -4.434164744952    9.526346749331    0.973008891032
 16      -1.388125455471   -9.643572815482   -4.086261738426
 17      -6.331369086473    6.968556302616    4.779616841653
 18      -0.465483233105   -9.688703755235   -6.792276545985
 19      -3.100453901708   -8.497097298000   -3.599351659733
 20      -2.574717078272  -11.298751665285   -3.484866267504
 21      -2.195921654662  -10.046057756064   -7.914044654876
 22       1.179371544477  -10.960098437297   -6.815348126438
 23       0.661994508766   -6.986481866611   -9.859055144766
 24      -0.890231969707   -5.558096499050   -7.938133069461
 25      -6.120132856208    9.498561674286    3.349397945649
 26      -7.558022343612    7.452870588402    6.407611053561
 27      -6.652327761149    5.582394335824    3.238380706057
 28      -5.675195536813   11.086552645083    4.637663853925
 29      -8.037436363097   10.289095055499    2.925119103435
 30      -5.017568850196    7.784181643500   -0.038338795474
 31      -4.541466474079   11.521731570059    0.344738156784


------------------
SYMMETRY REDUCTION
------------------
ORCA supports only abelian point groups.
It is now checked, if the determined point group is supported:
Point Group ( C1    ) is          ... supported

The point group is C1 - hence turning off symmetry
If this is a round-off problem, please increase the symmetry
        detection tolerance (%method SymThresh)

Storing the symmetry object:
Symmetry file                     ... input_72.sym.tmp
Writing symmetry information      ... done

                       ****************************
                       * Single Point Calculation *
                       ****************************

---------------------------------
CARTESIAN COORDINATES (ANGSTROEM)
---------------------------------
  V      0.991144    0.021227    0.513763
  S     -0.718850    0.594623    2.172952
  S      0.114779   -2.260954    0.658687
  S      0.527742    2.275189   -0.325448
  S      1.390605   -0.580092   -1.828483
  O      2.405871    0.054221    1.253162
  C      0.722102   -3.026408   -0.839384
  C      1.225804   -2.360794   -1.824235
  C     -0.884643    2.331754    2.063191
  C     -0.339404    3.067179    0.970527
  S      0.527962   -4.838201   -0.840447
  S      1.813475   -3.132608   -3.366814
  S     -0.539286    4.837963    0.835042
  S     -1.803596    3.132587    3.370701
  C      0.251959   -3.791466   -4.101814
  C     -2.346459    5.041126    0.514894
  C     -0.734564   -5.103159   -2.162357
  C     -3.350416    3.687601    2.529264
  C     -0.246323   -5.127041   -3.594318
  H     -1.640690   -4.496470   -1.904695
  H     -1.362482   -5.979042   -1.844112
  H     -1.162032   -5.316145   -4.187932
  H      0.624097   -5.799834   -3.606527
  H      0.350312   -3.697087   -5.217187
  H     -0.471090   -2.941218   -4.200679
  C     -3.238635    5.026422    1.772425
  H     -3.999533    3.943889    3.390762
  H     -3.520260    2.954076    1.713677
  H     -3.003184    5.866751    2.454146
  H     -4.253228    5.444755    1.547906
  H     -2.655183    4.119212   -0.020288
  H     -2.403241    6.097038    0.182428

----------------------------
CARTESIAN COORDINATES (A.U.)
----------------------------
  NO LB      ZA    FRAG     MASS         X           Y           Z
   0 V    23.0000    0    50.940    1.872991    0.040113    0.970870
   1 S    16.0000    0    32.060   -1.358429    1.123675    4.106285
   2 S    16.0000    0    32.060    0.216901   -4.272584    1.244738
   3 S    16.0000    0    32.060    0.997288    4.299485   -0.615007
   4 S    16.0000    0    32.060    2.627862   -1.096214   -3.455332
   5 O     8.0000    0    15.999    4.546436    0.102462    2.368134
   6 C     6.0000    0    12.011    1.364576   -5.719083   -1.586206
   7 C     6.0000    0    12.011    2.316433   -4.461253   -3.447305
   8 C     6.0000    0    12.011   -1.671733    4.406376    3.898865
   9 C     6.0000    0    12.011   -0.641381    5.796127    1.834031
  10 S    16.0000    0    32.060    0.997703   -9.142875   -1.588215
  11 S    16.0000    0    32.060    3.426971   -5.919770   -6.362356
  12 S    16.0000    0    32.060   -1.019103    9.142426    1.578002
  13 S    16.0000    0    32.060   -3.408302    5.919732    6.369702
  14 C     6.0000    0    12.011    0.476133   -7.164832   -7.751305
  15 C     6.0000    0    12.011   -4.434165    9.526347    0.973009
  16 C     6.0000    0    12.011   -1.388125   -9.643573   -4.086262
  17 C     6.0000    0    12.011   -6.331369    6.968556    4.779617
  18 C     6.0000    0    12.011   -0.465483   -9.688704   -6.792277
  19 H     1.0000    0     1.008   -3.100454   -8.497097   -3.599352
  20 H     1.0000    0     1.008   -2.574717  -11.298752   -3.484866
  21 H     1.0000    0     1.008   -2.195922  -10.046058   -7.914045
  22 H     1.0000    0     1.008    1.179372  -10.960098   -6.815348
  23 H     1.0000    0     1.008    0.661995   -6.986482   -9.859055
  24 H     1.0000    0     1.008   -0.890232   -5.558096   -7.938133
  25 C     6.0000    0    12.011   -6.120133    9.498562    3.349398
  26 H     1.0000    0     1.008   -7.558022    7.452871    6.407611
  27 H     1.0000    0     1.008   -6.652328    5.582394    3.238381
  28 H     1.0000    0     1.008   -5.675196   11.086553    4.637664
  29 H     1.0000    0     1.008   -8.037436   10.289095    2.925119
  30 H     1.0000    0     1.008   -5.017569    7.784182   -0.038339
  31 H     1.0000    0     1.008   -4.541466   11.521732    0.344738

--------------------------------
INTERNAL COORDINATES (ANGSTROEM)
--------------------------------
 V      0   0   0     0.000000000000     0.00000000     0.00000000
 S      1   0   0     2.450667777879     0.00000000     0.00000000
 S      1   2   0     2.448952344121    85.88713420     0.00000000
 S      1   2   3     2.449359776339    83.37597229   145.69325535
 S      1   2   3     2.450972575919   144.89779324    72.50408163
 O      1   2   3     1.596637651376   107.45148140   252.41799810
 C      3   1   2     1.788568825596   103.16449367   161.39794197
 C      7   3   1     1.291003456802   123.42087155   346.62632495
 C      2   1   3     1.748472870198   104.83994265   198.56059701
 C      9   2   1     1.425499100866   121.62856323    13.75893917
 S      7   3   1     1.822165069553   112.94484414   167.64178381
 S      8   7   3     1.822252218507   123.58883342   181.34298914
 S     10   9   2     1.787173209961   121.76972725   178.55452643
 S      9   2   1     1.787566203922   116.61061947   192.42012802
 C     12   8   7     1.847336744229   102.43112242    66.12538087
 C     13  10   9     1.846522098574   103.39235840   291.76174689
 C     11   7   3     1.847056931684   102.46692123   112.53319637
 C     14   9   2     1.846269520352   103.41599897   249.62493197
 C     17  11   7     1.513097223373   117.32332500    82.23385938
 H     17  11   7     1.120501499155   108.09035964   304.02620688
 H     17  11   7     1.123712906259   106.92228916   214.31538054
 H     19  17  11     1.107546874157   104.07199852   178.91053877
 H     19  17  11     1.100195428882   105.98822433    47.99428804
 H     15  12   8     1.123672098688   106.91719352   145.53318910
 H     15  12   8     1.120489178465   108.05487737    55.82602514
 C     16  13  10     1.541939703050   115.07646961    83.17374263
 H     18  14   9     1.108699335383   101.88065970   166.38741144
 H     18  14   9     1.109994863506   105.33184104    29.53572849
 H     26  16  13     1.107399067214   111.82673873    62.44897446
 H     26  16  13     1.120183070979   110.91875873   163.44017278
 H     16  13  10     1.109800018096   105.33508795   330.51582776
 H     16  13  10     1.108471321647   101.94325920   193.77256524

---------------------------
INTERNAL COORDINATES (A.U.)
---------------------------
 V      0   0   0     0.000000000000     0.00000000     0.00000000
 S      1   0   0     4.631090945417     0.00000000     0.00000000
 S      1   2   0     4.627849245414    85.88713420     0.00000000
 S      1   2   3     4.628619180724    83.37597229   145.69325535
 S      1   2   3     4.631666930239   144.89779324    72.50408163
 O      1   2   3     3.017207896209   107.45148140   252.41799810
 C      3   1   2     3.379905252046   103.16449367   161.39794197
 C      7   3   1     2.439642971302   123.42087155   346.62632495
 C      2   1   3     3.304134877266   104.83994265   198.56059701
 C      9   2   1     2.693802904788   121.62856323    13.75893917
 S      7   3   1     3.443392952253   112.94484414   167.64178381
 S      8   7   3     3.443557639908   123.58883342   181.34298914
 S     10   9   2     3.377267920707   121.76972725   178.55452643
 S      9   2   1     3.378010571665   116.61061947   192.42012802
 C     12   8   7     3.490960523722   102.43112242    66.12538087
 C     13  10   9     3.489421066539   103.39235840   291.76174689
 C     11   7   3     3.490431754644   102.46692123   112.53319637
 C     14   9   2     3.488943762871   103.41599897   249.62493197
 C     17  11   7     2.859339366172   117.32332500    82.23385938
 H     17  11   7     2.117440966051   108.09035964   304.02620688
 H     17  11   7     2.123509645983   106.92228916   214.31538054
 H     19  17  11     2.092960272636   104.07199852   178.91053877
 H     19  17  11     2.079068054378   105.98822433    47.99428804
 H     15  12   8     2.123432530850   106.91719352   145.53318910
 H     15  12   8     2.117417683322   108.05487737    55.82602514
 C     16  13  10     2.913843753784   115.07646961    83.17374263
 H     18  14   9     2.095138108734   101.88065970   166.38741144
 H     18  14   9     2.097586302086   105.33184104    29.53572849
 H     26  16  13     2.092680957994   111.82673873    62.44897446
 H     26  16  13     2.116839224006   110.91875873   163.44017278
 H     16  13  10     2.097218097622   105.33508795   330.51582776
 H     16  13  10     2.094707225218   101.94325920   193.77256524

---------------------
BASIS SET INFORMATION
---------------------
There are 5 groups of distinct atoms

 Group   1 Type V   : 17s11p5d1f contracted to 17s7p3d1f pattern {11111111111111111/3311111/311/1}
 Group   2 Type S   : 14s9p1d contracted to 5s4p1d pattern {73211/6111/1}
 Group   3 Type O   : 11s6p1d contracted to 5s3p1d pattern {62111/411/1}
 Group   4 Type C   : 11s6p1d contracted to 5s3p1d pattern {62111/411/1}
 Group   5 Type H   : 5s1p contracted to 3s1p pattern {311/1}

Atom   0V    basis set group =>   1
Atom   1S    basis set group =>   2
Atom   2S    basis set group =>   2
Atom   3S    basis set group =>   2
Atom   4S    basis set group =>   2
Atom   5O    basis set group =>   3
Atom   6C    basis set group =>   4
Atom   7C    basis set group =>   4
Atom   8C    basis set group =>   4
Atom   9C    basis set group =>   4
Atom  10S    basis set group =>   2
Atom  11S    basis set group =>   2
Atom  12S    basis set group =>   2
Atom  13S    basis set group =>   2
Atom  14C    basis set group =>   4
Atom  15C    basis set group =>   4
Atom  16C    basis set group =>   4
Atom  17C    basis set group =>   4
Atom  18C    basis set group =>   4
Atom  19H    basis set group =>   5
Atom  20H    basis set group =>   5
Atom  21H    basis set group =>   5
Atom  22H    basis set group =>   5
Atom  23H    basis set group =>   5
Atom  24H    basis set group =>   5
Atom  25C    basis set group =>   4
Atom  26H    basis set group =>   5
Atom  27H    basis set group =>   5
Atom  28H    basis set group =>   5
Atom  29H    basis set group =>   5
Atom  30H    basis set group =>   5
Atom  31H    basis set group =>   5

-------------------------
BASIS SET IN INPUT FORMAT
-------------------------

 # Basis set for element : H 
 NewGTO H 
 S 3 
   1      34.0613410000      0.0254393168
   2       5.1235746000      0.1900859340
   3       1.1646626000      0.8524411390
 S 1 
   1       0.3272304100      1.0000000000
 S 1 
   1       0.1030724100      1.0000000000
 P 1 
   1       0.8000000000      1.0000000000
  end;

 # Basis set for element : C 
 NewGTO C 
 S 6 
   1   13575.3496820000      0.0006064601
   2    2035.2333680000      0.0046978985
   3     463.2256235900      0.0243324735
   4     131.2001959800      0.0973999560
   5      42.8530158900      0.3019558443
   6      15.5841857700      0.6623361013
 S 2 
   1       6.2067138500      0.6559530795
   2       2.5764896500      0.3758563390
 S 1 
   1       0.5769633900      1.0000000000
 S 1 
   1       0.2297283100      1.0000000000
 S 1 
   1       0.0951644400      1.0000000000
 P 4 
   1      34.6972322400      0.0113272290
   2       7.9582622800      0.0761696612
   3       2.3780826900      0.3019225154
   4       0.8143320800      0.7278502776
 P 1 
   1       0.2888754700      1.0000000000
 P 1 
   1       0.1005682400      1.0000000000
 D 1 
   1       0.8000000000      1.0000000000
  end;

 # Basis set for element : O 
 NewGTO O 
 S 6 
   1   27032.3826310000      0.0005722654
   2    4052.3871392000      0.0044353333
   3     922.3272271000      0.0230201034
   4     261.2407098900      0.0928224938
   5      85.3546413500      0.2937849971
   6      31.0350352400      0.6740160462
 S 2 
   1      12.2608607300      0.6383993750
   2       4.9987076000      0.3953458663
 S 1 
   1       1.1703108200      1.0000000000
 S 1 
   1       0.4647474100      1.0000000000
 S 1 
   1       0.1850453600      1.0000000000
 P 4 
   1      63.2749548000      0.0120183316
   2      14.6270493800      0.0830054304
   3       4.4501223500      0.3199174388
   4       1.5275799600      0.7071554258
 P 1 
   1       0.5293511800      1.0000000000
 P 1 
   1       0.1747842100      1.0000000000
 D 1 
   1       1.2000000000      1.0000000000
  end;

 # Basis set for element : S 
 NewGTO S 
 S 7 
   1   60700.9281040000      0.0005238013
   2    9102.6106854000      0.0040506304
   3    2071.4166009000      0.0208270003
   4     586.0247682100      0.0814968475
   5     190.5539502100      0.2374911358
   6      67.6303842600      0.4472617145
   7      25.1273069100      0.3489191913
 S 3 
   1     112.5746301000      0.1004556993
   2      34.7955542200      0.4339117282
   3       6.5115556200     -1.2084330582
 S 2 
   1       3.2399032300      0.6749812922
   2       1.5477160900      0.3470879597
 S 1 
   1       0.4054103000      1.0000000000
 S 1 
   1       0.1455065100      1.0000000000
 P 6 
   1     564.3671602700      0.0025564845
   2     133.4262437900      0.0202874255
   3      42.4682711900      0.0927670112
   4      15.6165275800      0.2650208365
   5       6.1093988500      0.4486298663
   6       2.4404160200      0.3596369916
 P 1 
   1       0.8388220100      1.0000000000
 P 1 
   1       0.3128874700      1.0000000000
 P 1 
   1       0.1077010900      1.0000000000
 D 1 
   1       0.5500000000      1.0000000000
  end;

 # Basis set for element : V 
 NewGTO V 
 S 1 
   1  4239814.9912500000      1.0000000000
 S 1 
   1  1695925.9965000001      1.0000000000
 S 1 
   1  678370.3986000001      1.0000000000
 S 1 
   1  271348.1594400000      1.0000000000
 S 1 
   1   40672.0050780000      1.0000000000
 S 1 
   1    9257.0761385000      1.0000000000
 S 1 
   1    2622.7328773000      1.0000000000
 S 1 
   1     858.5948018500      1.0000000000
 S 1 
   1     314.1941865000      1.0000000000
 S 1 
   1     124.4786212700      1.0000000000
 S 1 
   1      50.4693993090      1.0000000000
 S 1 
   1      12.5138469110      1.0000000000
 S 1 
   1       5.3447758082      1.0000000000
 S 1 
   1       1.5755631295      1.0000000000
 S 1 
   1       0.6306903307      1.0000000000
 S 1 
   1       0.0879544416      1.0000000000
 S 1 
   1       0.0342969197      1.0000000000
 P 3 
   1    1450.0319327000     -0.0222847647
   2     343.7504988400     -0.1817959329
   3     110.8252170800     -0.8607412073
 P 3 
   1      41.8224645460     -0.2522537814
   2      17.0880737100     -0.4620379520
   3       7.2613218939     -0.3990010670
 P 1 
   1       2.9458145262      1.0000000000
 P 1 
   1       1.1650209680      1.0000000000
 P 1 
   1       0.4339937839      1.0000000000
 D 3 
   1      27.3603358640      0.0575501019
   2       7.4542765527      0.3023798347
   3       2.4632270217      0.7724212088
 D 1 
   1       0.8249954244      1.0000000000
 D 1 
   1       0.2526297057      1.0000000000
 P 1 
   1       0.1112480000      1.0000000000
 P 1 
   1       0.0363780000      1.0000000000
 F 1 
   1       1.8000000000      1.0000000000
  end;

---------------------------------
AUXILIARY/J BASIS SET INFORMATION
---------------------------------
There are 5 groups of distinct atoms

 Group   1 Type V   : 19s5p5d3f3g contracted to 8s5p5d2f3g pattern {121111111/11111/11111/21/111}
 Group   2 Type S   : 14s5p5d2f1g contracted to 8s4p3d1f1g pattern {71111111/2111/311/2/1}
 Group   3 Type O   : 12s5p4d2f1g contracted to 6s4p3d1f1g pattern {711111/2111/211/2/1}
 Group   4 Type C   : 12s5p4d2f1g contracted to 6s4p3d1f1g pattern {711111/2111/211/2/1}
 Group   5 Type H   : 5s2p1d contracted to 3s1p1d pattern {311/2/1}

Atom   0V    basis set group =>   1
Atom   1S    basis set group =>   2
Atom   2S    basis set group =>   2
Atom   3S    basis set group =>   2
Atom   4S    basis set group =>   2
Atom   5O    basis set group =>   3
Atom   6C    basis set group =>   4
Atom   7C    basis set group =>   4
Atom   8C    basis set group =>   4
Atom   9C    basis set group =>   4
Atom  10S    basis set group =>   2
Atom  11S    basis set group =>   2
Atom  12S    basis set group =>   2
Atom  13S    basis set group =>   2
Atom  14C    basis set group =>   4
Atom  15C    basis set group =>   4
Atom  16C    basis set group =>   4
Atom  17C    basis set group =>   4
Atom  18C    basis set group =>   4
Atom  19H    basis set group =>   5
Atom  20H    basis set group =>   5
Atom  21H    basis set group =>   5
Atom  22H    basis set group =>   5
Atom  23H    basis set group =>   5
Atom  24H    basis set group =>   5
Atom  25C    basis set group =>   4
Atom  26H    basis set group =>   5
Atom  27H    basis set group =>   5
Atom  28H    basis set group =>   5
Atom  29H    basis set group =>   5
Atom  30H    basis set group =>   5
Atom  31H    basis set group =>   5

-------------------------------------
AUXILIARY/J BASIS SET IN INPUT FORMAT
-------------------------------------

 # Auxiliary/J basis set for element : H 
 NewAuxJGTO H 
 S 3 
   1      15.6752927000      0.1007184237
   2       3.6063578000      0.3404257499
   3       1.2080016000      0.6491996172
 S 1 
   1       0.4726794000      1.0000000000
 S 1 
   1       0.2018100000      1.0000000000
 P 2 
   1       2.0281365000      0.5596620919
   2       0.5358730000      0.5596620919
 D 1 
   1       2.2165124000      1.0000000000
  end;

 # Auxiliary/J basis set for element : C 
 NewAuxJGTO C 
 S 7 
   1    1861.0916331000      0.0134602335
   2     642.9939764000      0.0299160374
   3     235.1105725000      0.1008649584
   4      90.7028894000      0.2370970548
   5      36.7794552000      0.3924037254
   6      15.6046273000      0.3195862154
   7       6.8907294000      0.0530104441
 S 1 
   1       3.1478850000     -1.0000000000
 S 1 
   1       1.4777287000      1.0000000000
 S 1 
   1       0.7076466000      1.0000000000
 S 1 
   1       0.3430122000      1.0000000000
 S 1 
   1       0.1669453000      1.0000000000
 P 2 
   1      13.5472892000     -0.6769313712
   2       5.4669419000     -0.3779500978
 P 1 
   1       2.1751721000      1.0000000000
 P 1 
   1       0.8582194000      1.0000000000
 P 1 
   1       0.3376720000      1.0000000000
 D 2 
   1       5.9287253000     -0.3533329857
   2       1.9809209000     -0.7456525731
 D 1 
   1       0.8055417000     -1.0000000000
 D 1 
   1       0.3531244000     -1.0000000000
 F 2 
   1       1.6755626000      0.6311076882
   2       0.5997536000      0.4968166032
 G 1 
   1       1.0024600000     -1.0000000000
  end;

 # Auxiliary/J basis set for element : O 
 NewAuxJGTO O 
 S 7 
   1    2876.8216605000      0.0168151159
   2    1004.7443032000      0.0340137548
   3     369.7579954000      0.1194951309
   4     142.9442404000      0.2664627624
   5      57.8366425000      0.4202764046
   6      24.3864983000      0.2765077335
   7      10.6622662000      0.0057008815
 S 1 
   1       4.8070437000     -1.0000000000
 S 1 
   1       2.2210770000      1.0000000000
 S 1 
   1       1.0447795000      1.0000000000
 S 1 
   1       0.4968425000      1.0000000000
 S 1 
   1       0.2371384000      1.0000000000
 P 2 
   1      64.2613382000     -0.2731534179
   2      16.3006076000     -0.8168011598
 P 1 
   1       4.3550542000      1.0000000000
 P 1 
   1       1.2019554000      1.0000000000
 P 1 
   1       0.3354196000      1.0000000000
 D 2 
   1       9.2146611000     -0.4661230638
   2       2.8435251000     -0.6600908911
 D 1 
   1       0.9955759000     -1.0000000000
 D 1 
   1       0.3649441000     -1.0000000000
 F 2 
   1       2.6420115000      0.5931563945
   2       0.7345613000      0.5931563945
 G 1 
   1       1.3931000000     -1.0000000000
  end;

 # Auxiliary/J basis set for element : S 
 NewAuxJGTO S 
 S 7 
   1    7399.0303145000      0.0295137551
   2    2710.1675859000      0.0559686311
   3    1034.3279062000      0.1764696370
   4     410.4645411000      0.3577969368
   5     168.9762502000      0.4299293578
   6      71.9687889000      0.1259148089
   7      31.6172683000     -0.0646025788
 S 1 
   1      14.2796836000      1.0000000000
 S 1 
   1       6.6060948000      1.0000000000
 S 1 
   1       3.1181477000      1.0000000000
 S 1 
   1       1.4954039000     -1.0000000000
 S 1 
   1       0.7254779000      1.0000000000
 S 1 
   1       0.3544216000      1.0000000000
 S 1 
   1       0.1735525000      1.0000000000
 P 2 
   1      12.6998799000      1.4059102813
   2       4.4295784000     -1.2124994202
 P 1 
   1       1.5232889000      1.0000000000
 P 1 
   1       0.5194667000     -1.0000000000
 P 1 
   1       0.1766547000     -1.0000000000
 D 3 
   1      16.8546461000      1.0295742104
   2       5.0810461000     -0.7461553923
   3       1.5102323000      0.8357028005
 D 1 
   1       0.4451331000      1.0000000000
 D 1 
   1       0.1308362000      1.0000000000
 F 2 
   1       1.0809860000      0.5572698934
   2       0.4161474000      0.5572698934
 G 1 
   1       0.6707100000     -1.0000000000
  end;

 # Auxiliary/J basis set for element : V 
 NewAuxJGTO V 
 S 12 
   1   11942.0842430000      0.0459866720
   2    2430.7110193000      0.1744615821
   3     841.0764301000      0.2900402792
   4     494.7508273000      0.1411212903
   5     291.0298903000      0.2660697186
   6     171.1940483000      0.0446365706
   7      59.2366916000     -0.0408204801
   8      34.8451117000      0.1394665381
   9      20.4971240000      0.2164746715
  10      12.0571314000      0.0864266611
  11       7.0924300000     -0.0568501658
  12       4.1720176000     -0.0126212852
 S 1 
   1       2.4541279000      1.0000000000
 S 1 
   1       1.4436046000      1.0000000000
 S 1 
   1       0.8491792000      1.0000000000
 S 1 
   1       0.2938336000      1.0000000000
 S 1 
   1       0.1728433000      1.0000000000
 S 1 
   1       0.1016725000      1.0000000000
 S 1 
   1       0.0598074000      1.0000000000
 P 1 
   1      16.7130979000     -1.0000000000
 P 1 
   1       4.7454037000     -1.0000000000
 P 1 
   1       1.3889998000      1.0000000000
 P 1 
   1       0.4142440000     -1.0000000000
 P 1 
   1       0.1243234000      1.0000000000
 D 1 
   1       7.7143225000      1.0000000000
 D 1 
   1       3.1170731000      1.0000000000
 D 1 
   1       1.2767950000     -1.0000000000
 D 1 
   1       0.5273386000      1.0000000000
 D 1 
   1       0.2184050000      1.0000000000
 F 2 
   1       3.1309344000     -1.0825667766
   2       1.0419780000      0.1809223232
 F 1 
   1       0.3559044000      1.0000000000
 G 1 
   1       8.7130110000      1.0000000000
 G 1 
   1       2.7493872000      1.0000000000
 G 1 
   1       0.8775089000      1.0000000000
  end;



           ************************************************************
           *        Program running with 4 parallel MPI-processes     *
           *              working on a common directory               *
           ************************************************************
------------------------------------------------------------------------------
                           ORCA GTO INTEGRAL CALCULATION
                           -- RI-GTO INTEGRALS CHOSEN --
------------------------------------------------------------------------------
------------------------------------------------------------------------------
                   ___                                                        
                  /   \      - P O W E R E D   B Y -                         
                 /     \                                                     
                 |  |  |   _    _      __       _____    __    __             
                 |  |  |  | |  | |    /  \     |  _  \  |  |  /  |          
                  \  \/   | |  | |   /    \    | | | |  |  | /  /          
                 / \  \   | |__| |  /  /\  \   | |_| |  |  |/  /          
                |  |  |   |  __  | /  /__\  \  |    /   |      \           
                |  |  |   | |  | | |   __   |  |    \   |  |\   \          
                \     /   | |  | | |  |  |  |  | |\  \  |  | \   \       
                 \___/    |_|  |_| |__|  |__|  |_| \__\ |__|  \__/        
                                                                              
                      - O R C A' S   B I G   F R I E N D -                    
                                      &                                       
                       - I N T E G R A L  F E E D E R -                       
                                                                              
 v1 FN, 2020, v2 2021                                                         
------------------------------------------------------------------------------


Reading SHARK input file input_72.SHARKINP.tmp ... ok
----------------------
SHARK INTEGRAL PACKAGE
----------------------

Number of atoms                             ...     32
Number of basis functions                   ...    517
Number of shells                            ...    255
Maximum angular momentum                    ...      3
Integral batch strategy                     ... SHARK/LIBINT Hybrid
RI-J (if used) integral strategy            ... SPLIT-RIJ (Revised 2003 algorithm where possible)
Printlevel                                  ...      1
Contraction scheme used                     ... SEGMENTED contraction
Coulomb Range Separation                    ... NOT USED
Exchange Range Separation                   ... NOT USED
Finite Nucleus Model                        ... NOT USED
Auxiliary Coulomb fitting basis             ... AVAILABLE
   # of basis functions in Aux-J            ...   1168
   # of shells in Aux-J                     ...    384
   Maximum angular momentum in Aux-J        ...      4
Auxiliary J/K fitting basis                 ... NOT available
Auxiliary Correlation fitting basis         ... NOT available
Auxiliary 'external' fitting basis          ... NOT available
Integral threshold                          ...     1.000000e-10
Primitive cut-off                           ...     1.000000e-11
Primitive pair pre-selection threshold      ...     1.000000e-11

Calculating pre-screening integrals         ... done (  0.1 sec) Dimension = 255
Organizing shell pair data                  ... done (  0.1 sec)
Shell pair information
Total number of shell pairs                 ...     32640
Shell pairs after pre-screening             ...     17819
Total number of primitive shell pairs       ...    123863
Primitive shell pairs kept                  ...     41658
          la=0 lb=0:   5378 shell pairs
          la=1 lb=0:   7057 shell pairs
          la=1 lb=1:   2297 shell pairs
          la=2 lb=0:   1676 shell pairs
          la=2 lb=1:   1119 shell pairs
          la=2 lb=2:    154 shell pairs
          la=3 lb=0:     73 shell pairs
          la=3 lb=1:     52 shell pairs
          la=3 lb=2:     12 shell pairs
          la=3 lb=3:      1 shell pairs

Calculating one electron integrals          ... done (  0.0 sec)
Calculating RI/J V-Matrix + Cholesky decomp.... done (  0.1 sec)
Calculating Nuclear repulsion               ... done (  0.0 sec) ENN=   3211.559252807796 Eh

SHARK setup successfully completed in   0.6 seconds

Maximum memory used throughout the entire GTOINT-calculation: 31.9 MB


           ************************************************************
           *        Program running with 4 parallel MPI-processes     *
           *              working on a common directory               *
           ************************************************************
-------------------------------------------------------------------------------
                                 ORCA SCF
-------------------------------------------------------------------------------

------------
SCF SETTINGS
------------
Hamiltonian:
 Density Functional     Method          .... DFT(GTOs)
 Exchange Functional    Exchange        .... B88
   X-Alpha parameter    XAlpha          ....  0.666667
   Becke's b parameter  XBeta           ....  0.004200
 Correlation Functional Correlation     .... LYP
 LDA part of GGA corr.  LDAOpt          .... VWN-5
 Gradients option       PostSCFGGA      .... off
 Hybrid DFT is turned on
   Fraction HF Exchange ScalHFX         ....  0.200000
   Scaling of DF-GGA-X  ScalDFX         ....  0.720000
   Scaling of DF-GGA-C  ScalDFC         ....  0.810000
   Scaling of DF-LDA-C  ScalLDAC        ....  1.000000
   Perturbative correction              ....  0.000000
   Density functional embedding theory  .... OFF
   NL short-range parameter             ....  4.800000
 RI-approximation to the Coulomb term is turned on
   Number of AuxJ basis functions       .... 1168
   RIJ-COSX (HFX calculated with COS-X)).... on


General Settings:
 Integral files         IntName         .... input_72
 Hartree-Fock type      HFTyp           .... UHF
 Total Charge           Charge          ....   -2
 Multiplicity           Mult            ....    2
 Number of Electrons    NEL             ....  233
 Basis Dimension        Dim             ....  517
 Nuclear Repulsion      ENuc            ....   3211.5592528078 Eh

Convergence Acceleration:
 DIIS                   CNVDIIS         .... on
   Start iteration      DIISMaxIt       ....    12
   Startup error        DIISStart       ....  0.200000
   # of expansion vecs  DIISMaxEq       ....     5
   Bias factor          DIISBfac        ....   1.050
   Max. coefficient     DIISMaxC        ....  10.000
 Trust-Rad. Augm. Hess. CNVTRAH         .... auto
   Auto Start mean grad. ratio tolernc. ....  1.125000
   Auto Start start iteration           ....    20
   Auto Start num. interpolation iter.  ....    10
   Max. Number of Micro iterations      ....    16
   Max. Number of Macro iterations      .... Maxiter - #DIIS iter
   Number of Davidson start vectors     ....     2
   Converg. threshold I  (grad. norm)   ....   5.000e-05
   Converg. threshold II (energy diff.) ....   1.000e-06
   Grad. Scal. Fac. for Micro threshold ....   0.100
   Minimum threshold for Micro iter.    ....   0.010
   NR start threshold (gradient norm)   ....   0.001
   Initial trust radius                 ....   0.400
   Minimum AH scaling param. (alpha)    ....   1.000
   Maximum AH scaling param. (alpha)    .... 1000.000
   Orbital update algorithm             .... Taylor
   White noise on init. David. guess    .... on
   Maximum white noise                  ....   0.010
   Quad. conv. algorithm                .... NR
 SOSCF                  CNVSOSCF        .... off
 Level Shifting         CNVShift        .... on
   Level shift para.    LevelShift      ....    0.2500
   Turn off err/grad.   ShiftErr        ....    0.0010
 Zerner damping         CNVZerner       .... off
 Static damping         CNVDamp         .... on
   Fraction old density DampFac         ....    0.7000
   Max. Damping (<1)    DampMax         ....    0.9800
   Min. Damping (>=0)   DampMin         ....    0.0000
   Turn off err/grad.   DampErr         ....    0.1000
 Fernandez-Rico         CNVRico         .... off

SCF Procedure:
 Maximum # iterations   MaxIter         ....   125
 SCF integral mode      SCFMode         .... Direct
   Integral package                     .... SHARK and LIBINT hybrid scheme
 Reset frequency        DirectResetFreq ....    20
 Integral Threshold     Thresh          ....  1.000e-10 Eh
 Primitive CutOff       TCut            ....  1.000e-11 Eh

Convergence Tolerance:
 Convergence Check Mode ConvCheckMode   .... Total+1el-Energy
 Convergence forced     ConvForced      .... 0
 Energy Change          TolE            ....  1.000e-06 Eh
 1-El. energy change                    ....  1.000e-03 Eh
 DIIS Error             TolErr          ....  1.000e-06


Diagonalization of the overlap matrix:
Smallest eigenvalue                        ... 1.480e-04
Time for diagonalization                   ...    0.141 sec
Threshold for overlap eigenvalues          ... 1.000e-08
Number of eigenvalues below threshold      ... 0
Time for construction of square roots      ...    0.082 sec
Total time needed                          ...    0.225 sec

Time for model grid setup =    0.355 sec

------------------------------
INITIAL GUESS: MODEL POTENTIAL
------------------------------
Loading Hartree-Fock densities                     ... done
Calculating cut-offs                               ... done
Initializing the effective Hamiltonian             ... done
Setting up the integral package (SHARK)            ... done
Starting the Coulomb interaction                   ... done (   0.4 sec)
Reading the grid                                   ... done
Mapping shells                                     ... done
Starting the XC term evaluation                    ... done (   0.2 sec)
  promolecular density results
     # of electrons  =    230.994907336
     EX              =   -307.531834256
     EC              =     -9.026279952
     EX+EC           =   -316.558114208
Transforming the Hamiltonian                       ... done (   0.1 sec)
Diagonalizing the Hamiltonian                      ... done (   0.1 sec)
Back transforming the eigenvectors                 ... done (   0.0 sec)
Now organizing SCF variables                       ... done
                      ------------------
                      INITIAL GUESS DONE (   1.2 sec)
                      ------------------
-------------------
DFT GRID GENERATION
-------------------

General Integration Accuracy     IntAcc      ... 4.388
Radial Grid Type                 RadialGrid  ... OptM3 with GC (2021)
Angular Grid (max. ang.)         AngularGrid ... 4 (Lebedev-302)
Angular grid pruning method      GridPruning ... 4 (adaptive)
Weight generation scheme         WeightScheme... Becke
Basis function cutoff            BFCut       ... 1.0000e-10
Integration weight cutoff        WCut        ... 1.0000e-14
Angular grids for H and He will be reduced by one unit
Partially contracted basis set               ... off
Rotationally invariant grid construction     ... off

Total number of grid points                  ...   184071
Total number of batches                      ...     2892
Average number of points per batch           ...       63
Average number of grid points per atom       ...     5752
Time for grid setup =    1.603 sec

--------------------
COSX GRID GENERATION
--------------------

GRIDX 1
-------
General Integration Accuracy     IntAcc      ... 3.816
Radial Grid Type                 RadialGrid  ... OptM3 with GC (2021)
Angular Grid (max. ang.)         AngularGrid ... 1 (Lebedev-50)
Angular grid pruning method      GridPruning ... 4 (adaptive)
Weight generation scheme         WeightScheme... Becke
Basis function cutoff            BFCut       ... 1.0000e-10
Integration weight cutoff        WCut        ... 1.0000e-14
Angular grids for H and He will be reduced by one unit
Partially contracted basis set               ... on
Rotationally invariant grid construction     ... off

Total number of grid points                  ...    22815
Total number of batches                      ...      373
Average number of points per batch           ...       61
Average number of grid points per atom       ...      713
UseSFitting                                  ... on

GRIDX 2
-------
General Integration Accuracy     IntAcc      ... 4.020
Radial Grid Type                 RadialGrid  ... OptM3 with GC (2021)
Angular Grid (max. ang.)         AngularGrid ... 2 (Lebedev-110)
Angular grid pruning method      GridPruning ... 4 (adaptive)
Weight generation scheme         WeightScheme... Becke
Basis function cutoff            BFCut       ... 1.0000e-10
Integration weight cutoff        WCut        ... 1.0000e-14
Angular grids for H and He will be reduced by one unit
Partially contracted basis set               ... on
Rotationally invariant grid construction     ... off

Total number of grid points                  ...    49130
Total number of batches                      ...      787
Average number of points per batch           ...       62
Average number of grid points per atom       ...     1535
UseSFitting                                  ... on

GRIDX 3
-------
General Integration Accuracy     IntAcc      ... 4.338
Radial Grid Type                 RadialGrid  ... OptM3 with GC (2021)
Angular Grid (max. ang.)         AngularGrid ... 3 (Lebedev-194)
Angular grid pruning method      GridPruning ... 4 (adaptive)
Weight generation scheme         WeightScheme... Becke
Basis function cutoff            BFCut       ... 1.0000e-10
Integration weight cutoff        WCut        ... 1.0000e-14
Angular grids for H and He will be reduced by one unit
Partially contracted basis set               ... on
Rotationally invariant grid construction     ... off

Total number of grid points                  ...   112182
Total number of batches                      ...     1769
Average number of points per batch           ...       63
Average number of grid points per atom       ...     3506
UseSFitting                                  ... on

Time for X-Grid setup             =    1.795 sec

--------------
SCF ITERATIONS
--------------
ITER       Energy         Delta-E        Max-DP      RMS-DP      [F,P]     Damp
               ***  Starting incremental Fock matrix formation  ***
  0  -4591.9435102772   0.000000000000 0.06908808  0.00091860  0.2339610 0.7000
  1  -4592.2289399206  -0.285429643361 0.10527772  0.00090696  0.1560072 0.7000
                               ***Turning on DIIS***
  2  -4592.3747944430  -0.145854522359 0.07481801  0.00056183  0.1091631 0.7000
  3  -4592.4550180913  -0.080223648308 0.11635614  0.00088250  0.0772154 0.0000
  4  -4592.6452322191  -0.190214127783 0.07022841  0.00049724  0.0143476 0.0000
  5  -4592.6508263539  -0.005594134887 0.01247334  0.00010339  0.0110131 0.0000
  6  -4592.6519639244  -0.001137570433 0.00285602  0.00004514  0.0030937 0.0000
  7  -4592.6521591083  -0.000195183892 0.00145627  0.00002251  0.0013294 0.0000
  8  -4592.6522238224  -0.000064714183 0.00142428  0.00001586  0.0012403 0.0000
  9  -4592.6522599138  -0.000036091365 0.00254168  0.00002276  0.0009084 0.0000
               *** Restarting incremental Fock matrix formation ***
                                   *** Resetting DIIS ***
 10  -4592.6522440801   0.000015833759 0.00160190  0.00001491  0.0008176 0.0000
 11  -4592.6522140249   0.000030055147 0.00034137  0.00000389  0.0026021 0.0000
 12  -4592.6522497331  -0.000035708220 0.00026805  0.00000346  0.0010362 0.0000
 13  -4592.6522561513  -0.000006418147 0.00072373  0.00000502  0.0004165 0.0000
 14  -4592.6522594679  -0.000003316609 0.00030285  0.00000297  0.0001609 0.0000
 15  -4592.6522602459  -0.000000778034 0.00015712  0.00000178  0.0001832 0.0000
 16  -4592.6522605811  -0.000000335205 0.00028205  0.00000196  0.0001117 0.0000
 17  -4592.6522608046  -0.000000223496 0.00012516  0.00000089  0.0000615 0.0000
 18  -4592.6522607402   0.000000064430 0.00005808  0.00000037  0.0000122 0.0000
 19  -4592.6522607607  -0.000000020509 0.00002117  0.00000021  0.0000187 0.0000
                 **** Energy Check signals convergence ****

               *****************************************************
               *                     SUCCESS                       *
               *           SCF CONVERGED AFTER  20 CYCLES          *
               *****************************************************

Old exchange energy                            =    -61.746231313 Eh
New exchange energy                            =    -61.746278312 Eh
Exchange energy change after final integration =     -0.000046999 Eh
Total energy after final integration           =  -4592.652307790 Eh
Final COS-X integration done in                =    25.086 sec

----------------
TOTAL SCF ENERGY
----------------

Total Energy       :        -4592.65230779 Eh         -124972.42277 eV

Components:
Nuclear Repulsion  :         3211.55925281 Eh           87390.97014 eV
Electronic Energy  :        -7804.21156060 Eh         -212363.39291 eV
One Electron Energy:       -12786.70433821 Eh         -347943.91417 eV
Two Electron Energy:         4982.49277762 Eh          135580.52126 eV
Max COSX asymmetry :            0.00000533 Eh               0.00015 eV

Virial components:
Potential Energy   :        -9173.58343773 Eh         -249625.89608 eV
Kinetic Energy     :         4580.93112994 Eh          124653.47331 eV
Virial Ratio       :            2.00255869


DFT components:
N(Alpha)           :      117.000025421265 electrons
N(Beta)            :      116.000019159074 electrons
N(Total)           :      233.000044580339 electrons
E(X)               :     -245.437410302395 Eh       
E(C)               :      -10.623111850527 Eh       
E(XC)              :     -256.060522152922 Eh       
DFET-embed. en.    :        0.000000000000 Eh       

---------------
SCF CONVERGENCE
---------------

  Last Energy change         ...   -3.0117e-08  Tolerance :   1.0000e-06
  Last MAX-Density change    ...    0.0000e+00  Tolerance :   1.0000e-05
  Last RMS-Density change    ...    0.0000e+00  Tolerance :   1.0000e-06
  Last DIIS Error            ...    1.0250e-05  Tolerance :   1.0000e-06

             **** THE GBW FILE WAS UPDATED (input_72.gbw) ****
             **** DENSITY input_72.scfp WAS UPDATED ****
             **** ENERGY FILE WAS UPDATED (input_72.en.tmp) ****
----------------------
UHF SPIN CONTAMINATION
----------------------

Warning: in a DFT calculation there is little theoretical justification to 
         calculate <S**2> as in Hartree-Fock theory. We will do it anyways
         but you should keep in mind that the values have only limited relevance

Expectation value of <S**2>     :     0.764870
Ideal value S*(S+1) for S=0.5   :     0.750000
Deviation                       :     0.014870

             **** THE GBW FILE WAS UPDATED (input_72.gbw) ****
             **** DENSITY input_72.scfp WAS UPDATED ****
----------------
ORBITAL ENERGIES
----------------
                 SPIN UP ORBITALS
  NO   OCC          E(Eh)            E(eV) 
   0   1.0000    -196.640439     -5350.8584 
   1   1.0000     -88.679918     -2413.1032 
   2   1.0000     -88.679843     -2413.1012 
   3   1.0000     -88.674616     -2412.9590 
   4   1.0000     -88.674608     -2412.9588 
   5   1.0000     -88.613255     -2411.2893 
   6   1.0000     -88.613109     -2411.2853 
   7   1.0000     -88.611507     -2411.2417 
   8   1.0000     -88.611446     -2411.2400 
   9   1.0000     -22.016227      -599.0920 
  10   1.0000     -18.857492      -513.1384 
  11   1.0000     -18.523048      -504.0378 
  12   1.0000     -18.517278      -503.8808 
  13   1.0000     -18.517242      -503.8798 
  14   1.0000     -10.020846      -272.6811 
  15   1.0000     -10.020836      -272.6808 
  16   1.0000     -10.020431      -272.6698 
  17   1.0000     -10.020340      -272.6673 
  18   1.0000     -10.015177      -272.5268 
  19   1.0000     -10.001814      -272.1632 
  20   1.0000      -9.995081      -271.9800 
  21   1.0000      -9.994633      -271.9678 
  22   1.0000      -9.987868      -271.7837 
  23   1.0000      -9.986661      -271.7509 
  24   1.0000      -7.733131      -210.4292 
  25   1.0000      -7.733072      -210.4276 
  26   1.0000      -7.728556      -210.3047 
  27   1.0000      -7.728547      -210.3045 
  28   1.0000      -7.667933      -208.6551 
  29   1.0000      -7.667852      -208.6529 
  30   1.0000      -7.665681      -208.5938 
  31   1.0000      -7.665632      -208.5924 
  32   1.0000      -5.698390      -155.0611 
  33   1.0000      -5.698340      -155.0597 
  34   1.0000      -5.694556      -154.9567 
  35   1.0000      -5.694493      -154.9550 
  36   1.0000      -5.693775      -154.9355 
  37   1.0000      -5.693769      -154.9353 
  38   1.0000      -5.689829      -154.8281 
  39   1.0000      -5.689827      -154.8281 
  40   1.0000      -5.687872      -154.7749 
  41   1.0000      -5.687805      -154.7730 
  42   1.0000      -5.683361      -154.6521 
  43   1.0000      -5.683356      -154.6520 
  44   1.0000      -5.632565      -153.2699 
  45   1.0000      -5.632467      -153.2672 
  46   1.0000      -5.630757      -153.2207 
  47   1.0000      -5.630704      -153.2192 
  48   1.0000      -5.626348      -153.1007 
  49   1.0000      -5.626242      -153.0978 
  50   1.0000      -5.626125      -153.0946 
  51   1.0000      -5.626036      -153.0922 
  52   1.0000      -5.624153      -153.0410 
  53   1.0000      -5.624088      -153.0392 
  54   1.0000      -5.623437      -153.0215 
  55   1.0000      -5.623391      -153.0203 
  56   1.0000      -2.409918       -65.5772 
  57   1.0000      -1.451279       -39.4913 
  58   1.0000      -1.439699       -39.1762 
  59   1.0000      -1.438620       -39.1468 
  60   1.0000      -0.648234       -17.6394 
  61   1.0000      -0.641394       -17.4532 
  62   1.0000      -0.618512       -16.8306 
  63   1.0000      -0.602029       -16.3820 
  64   1.0000      -0.587906       -15.9977 
  65   1.0000      -0.576513       -15.6877 
  66   1.0000      -0.575172       -15.6512 
  67   1.0000      -0.494069       -13.4443 
  68   1.0000      -0.489511       -13.3203 
  69   1.0000      -0.489119       -13.3096 
  70   1.0000      -0.484765       -13.1911 
  71   1.0000      -0.423214       -11.5162 
  72   1.0000      -0.420353       -11.4384 
  73   1.0000      -0.418752       -11.3948 
  74   1.0000      -0.403507       -10.9800 
  75   1.0000      -0.389120       -10.5885 
  76   1.0000      -0.366162        -9.9638 
  77   1.0000      -0.304831        -8.2949 
  78   1.0000      -0.299605        -8.1527 
  79   1.0000      -0.271430        -7.3860 
  80   1.0000      -0.267666        -7.2836 
  81   1.0000      -0.257125        -6.9967 
  82   1.0000      -0.256008        -6.9663 
  83   1.0000      -0.247483        -6.7344 
  84   1.0000      -0.243035        -6.6133 
  85   1.0000      -0.206118        -5.6088 
  86   1.0000      -0.195021        -5.3068 
  87   1.0000      -0.185688        -5.0528 
  88   1.0000      -0.180885        -4.9221 
  89   1.0000      -0.177660        -4.8344 
  90   1.0000      -0.175149        -4.7661 
  91   1.0000      -0.169375        -4.6089 
  92   1.0000      -0.151058        -4.1105 
  93   1.0000      -0.146491        -3.9862 
  94   1.0000      -0.139468        -3.7951 
  95   1.0000      -0.137411        -3.7391 
  96   1.0000      -0.134603        -3.6627 
  97   1.0000      -0.098035        -2.6677 
  98   1.0000      -0.097848        -2.6626 
  99   1.0000      -0.091016        -2.4767 
 100   1.0000      -0.083307        -2.2669 
 101   1.0000      -0.080684        -2.1955 
 102   1.0000      -0.077219        -2.1012 
 103   1.0000      -0.069410        -1.8887 
 104   1.0000      -0.051826        -1.4102 
 105   1.0000      -0.038806        -1.0560 
 106   1.0000      -0.038549        -1.0490 
 107   1.0000      -0.034290        -0.9331 
 108   1.0000      -0.032656        -0.8886 
 109   1.0000      -0.013438        -0.3657 
 110   1.0000      -0.005416        -0.1474 
 111   1.0000      -0.003330        -0.0906 
 112   1.0000       0.006564         0.1786 
 113   1.0000       0.010432         0.2839 
 114   1.0000       0.015993         0.4352 
 115   1.0000       0.032259         0.8778 
 116   1.0000       0.060198         1.6381 
 117   0.0000       0.185435         5.0459 
 118   0.0000       0.189837         5.1657 
 119   0.0000       0.191076         5.1994 
 120   0.0000       0.195336         5.3154 
 121   0.0000       0.210671         5.7327 
 122   0.0000       0.212081         5.7710 
 123   0.0000       0.218117         5.9353 
 124   0.0000       0.220425         5.9981 
 125   0.0000       0.226819         6.1720 
 126   0.0000       0.233520         6.3544 
 127   0.0000       0.239541         6.5182 
 128   0.0000       0.239846         6.5265 
 129   0.0000       0.240796         6.5524 
 130   0.0000       0.242254         6.5921 
 131   0.0000       0.247626         6.7382 
 132   0.0000       0.249454         6.7880 
 133   0.0000       0.251448         6.8422 
 134   0.0000       0.251599         6.8463 
 135   0.0000       0.262832         7.1520 
 136   0.0000       0.270134         7.3507 
 137   0.0000       0.272146         7.4055 
 138   0.0000       0.278575         7.5804 
 139   0.0000       0.282010         7.6739 
 140   0.0000       0.283415         7.7121 
 141   0.0000       0.284362         7.7379 
 142   0.0000       0.284601         7.7444 
 143   0.0000       0.291029         7.9193 
 144   0.0000       0.299254         8.1431 
 145   0.0000       0.301912         8.2154 
 146   0.0000       0.310533         8.4500 
 147   0.0000       0.319901         8.7049 
 148   0.0000       0.320471         8.7205 
 149   0.0000       0.333914         9.0863 
 150   0.0000       0.347498         9.4559 
 151   0.0000       0.358685         9.7603 
 152   0.0000       0.367187         9.9917 
 153   0.0000       0.376090        10.2339 
 154   0.0000       0.383244        10.4286 
 155   0.0000       0.389955        10.6112 
 156   0.0000       0.393853        10.7173 
 157   0.0000       0.399392        10.8680 
 158   0.0000       0.407346        11.0845 
 159   0.0000       0.409566        11.1448 
 160   0.0000       0.424921        11.5627 
 161   0.0000       0.426293        11.6000 
 162   0.0000       0.428317        11.6551 
 163   0.0000       0.436066        11.8660 
 164   0.0000       0.442203        12.0330 
 165   0.0000       0.445851        12.1322 
 166   0.0000       0.452892        12.3238 
 167   0.0000       0.457348        12.4451 
 168   0.0000       0.461612        12.5611 
 169   0.0000       0.464940        12.6517 
 170   0.0000       0.469364        12.7720 
 171   0.0000       0.472497        12.8573 
 172   0.0000       0.482476        13.1288 
 173   0.0000       0.485748        13.2179 
 174   0.0000       0.493849        13.4383 
 175   0.0000       0.495664        13.4877 
 176   0.0000       0.500614        13.6224 
 177   0.0000       0.501956        13.6589 
 178   0.0000       0.510909        13.9025 
 179   0.0000       0.513269        13.9668 
 180   0.0000       0.516086        14.0434 
 181   0.0000       0.518302        14.1037 
 182   0.0000       0.522817        14.2266 
 183   0.0000       0.525414        14.2973 
 184   0.0000       0.535217        14.5640 
 185   0.0000       0.544983        14.8297 
 186   0.0000       0.545988        14.8571 
 187   0.0000       0.551260        15.0005 
 188   0.0000       0.552891        15.0449 
 189   0.0000       0.560175        15.2431 
 190   0.0000       0.561333        15.2746 
 191   0.0000       0.569078        15.4854 
 192   0.0000       0.574024        15.6200 
 193   0.0000       0.575313        15.6551 
 194   0.0000       0.576927        15.6990 
 195   0.0000       0.577116        15.7041 
 196   0.0000       0.580987        15.8095 
 197   0.0000       0.581743        15.8300 
 198   0.0000       0.585826        15.9411 
 199   0.0000       0.587807        15.9950 
 200   0.0000       0.592607        16.1257 
 201   0.0000       0.595194        16.1961 
 202   0.0000       0.601479        16.3671 
 203   0.0000       0.603289        16.4163 
 204   0.0000       0.611256        16.6331 
 205   0.0000       0.614497        16.7213 
 206   0.0000       0.620226        16.8772 
 207   0.0000       0.622225        16.9316 
 208   0.0000       0.626201        17.0398 
 209   0.0000       0.630346        17.1526 
 210   0.0000       0.630840        17.1660 
 211   0.0000       0.639057        17.3896 
 212   0.0000       0.644408        17.5352 
 213   0.0000       0.647841        17.6287 
 214   0.0000       0.651071        17.7165 
 215   0.0000       0.656068        17.8525 
 216   0.0000       0.659471        17.9451 
 217   0.0000       0.664355        18.0780 
 218   0.0000       0.669093        18.2070 
 219   0.0000       0.672852        18.3092 
 220   0.0000       0.678161        18.4537 
 221   0.0000       0.684555        18.6277 
 222   0.0000       0.689181        18.7536 
 223   0.0000       0.695142        18.9158 
 224   0.0000       0.701431        19.0869 
 225   0.0000       0.727017        19.7831 
 226   0.0000       0.728667        19.8280 
 227   0.0000       0.732206        19.9243 
 228   0.0000       0.744913        20.2701 
 229   0.0000       0.758765        20.6470 
 230   0.0000       0.776824        21.1385 
 231   0.0000       0.781337        21.2612 
 232   0.0000       0.798305        21.7230 
 233   0.0000       0.799689        21.7606 
 234   0.0000       0.803639        21.8681 
 235   0.0000       0.834801        22.7161 
 236   0.0000       0.849778        23.1236 
 237   0.0000       0.862817        23.4784 
 238   0.0000       0.872893        23.7526 
 239   0.0000       0.888648        24.1813 
 240   0.0000       0.902104        24.5475 
 241   0.0000       0.907230        24.6870 
 242   0.0000       0.907631        24.6979 
 243   0.0000       0.914596        24.8874 
 244   0.0000       0.915474        24.9113 
 245   0.0000       0.931769        25.3547 
 246   0.0000       0.933355        25.3979 
 247   0.0000       0.955479        25.9999 
 248   0.0000       0.963431        26.2163 
 249   0.0000       0.972915        26.4744 
 250   0.0000       0.973142        26.4805 
 251   0.0000       0.981329        26.7033 
 252   0.0000       0.984252        26.7829 
 253   0.0000       0.985472        26.8161 
 254   0.0000       0.994617        27.0649 
 255   0.0000       1.002700        27.2849 
 256   0.0000       1.006027        27.3754 
 257   0.0000       1.019390        27.7390 
 258   0.0000       1.022415        27.8213 
 259   0.0000       1.036175        28.1958 
 260   0.0000       1.046931        28.4885 
 261   0.0000       1.056753        28.7557 
 262   0.0000       1.058738        28.8097 
 263   0.0000       1.070134        29.1198 
 264   0.0000       1.088443        29.6180 
 265   0.0000       1.091269        29.6949 
 266   0.0000       1.098970        29.9045 
 267   0.0000       1.118830        30.4449 
 268   0.0000       1.119533        30.4640 
 269   0.0000       1.123283        30.5661 
 270   0.0000       1.125672        30.6311 
 271   0.0000       1.129145        30.7256 
 272   0.0000       1.132055        30.8048 
 273   0.0000       1.136604        30.9286 
 274   0.0000       1.138508        30.9804 
 275   0.0000       1.146236        31.1907 
 276   0.0000       1.154994        31.4290 
 277   0.0000       1.160705        31.5844 
 278   0.0000       1.183226        32.1972 
 279   0.0000       1.192114        32.4391 
 280   0.0000       1.202129        32.7116 
 281   0.0000       1.234178        33.5837 
 282   0.0000       1.242558        33.8117 
 283   0.0000       1.267193        34.4821 
 284   0.0000       1.276393        34.7324 
 285   0.0000       1.281998        34.8849 
 286   0.0000       1.293145        35.1883 
 287   0.0000       1.300199        35.3802 
 288   0.0000       1.308129        35.5960 
 289   0.0000       1.316321        35.8189 
 290   0.0000       1.348846        36.7040 
 291   0.0000       1.369120        37.2556 
 292   0.0000       1.392896        37.9026 
 293   0.0000       1.396196        37.9924 
 294   0.0000       1.417130        38.5621 
 295   0.0000       1.417981        38.5852 
 296   0.0000       1.440057        39.1859 
 297   0.0000       1.460391        39.7393 
 298   0.0000       1.465887        39.8888 
 299   0.0000       1.467331        39.9281 
 300   0.0000       1.477216        40.1971 
 301   0.0000       1.477360        40.2010 
 302   0.0000       1.490699        40.5640 
 303   0.0000       1.506823        41.0027 
 304   0.0000       1.513746        41.1911 
 305   0.0000       1.518973        41.3333 
 306   0.0000       1.528583        41.5949 
 307   0.0000       1.532291        41.6958 
 308   0.0000       1.533835        41.7378 
 309   0.0000       1.538059        41.8527 
 310   0.0000       1.547657        42.1139 
 311   0.0000       1.560190        42.4549 
 312   0.0000       1.573834        42.8262 
 313   0.0000       1.575755        42.8785 
 314   0.0000       1.590754        43.2866 
 315   0.0000       1.606742        43.7217 
 316   0.0000       1.613180        43.8969 
 317   0.0000       1.618299        44.0362 
 318   0.0000       1.647237        44.8236 
 319   0.0000       1.658399        45.1273 
 320   0.0000       1.659387        45.1542 
 321   0.0000       1.691646        46.0320 
 322   0.0000       1.693431        46.0806 
 323   0.0000       1.697894        46.2021 
 324   0.0000       1.703343        46.3503 
 325   0.0000       1.710578        46.5472 
 326   0.0000       1.723287        46.8930 
 327   0.0000       1.744046        47.4579 
 328   0.0000       1.749572        47.6083 
 329   0.0000       1.752990        47.7013 
 330   0.0000       1.759893        47.8891 
 331   0.0000       1.774503        48.2867 
 332   0.0000       1.779090        48.4115 
 333   0.0000       1.787121        48.6300 
 334   0.0000       1.793756        48.8106 
 335   0.0000       1.798385        48.9365 
 336   0.0000       1.819533        49.5120 
 337   0.0000       1.824753        49.6541 
 338   0.0000       1.828187        49.7475 
 339   0.0000       1.832116        49.8544 
 340   0.0000       1.842700        50.1424 
 341   0.0000       1.848433        50.2984 
 342   0.0000       1.852362        50.4053 
 343   0.0000       1.863140        50.6986 
 344   0.0000       1.868992        50.8579 
 345   0.0000       1.874922        51.0192 
 346   0.0000       1.877917        51.1007 
 347   0.0000       1.887853        51.3711 
 348   0.0000       1.911673        52.0193 
 349   0.0000       1.922737        52.3203 
 350   0.0000       1.934754        52.6473 
 351   0.0000       1.939827        52.7854 
 352   0.0000       1.949343        53.0443 
 353   0.0000       1.967662        53.5428 
 354   0.0000       1.979087        53.8537 
 355   0.0000       1.988448        54.1084 
 356   0.0000       1.992914        54.2300 
 357   0.0000       2.011602        54.7385 
 358   0.0000       2.036175        55.4071 
 359   0.0000       2.040043        55.5124 
 360   0.0000       2.048231        55.7352 
 361   0.0000       2.053660        55.8829 
 362   0.0000       2.054068        55.8940 
 363   0.0000       2.068967        56.2995 
 364   0.0000       2.087243        56.7968 
 365   0.0000       2.091761        56.9197 
 366   0.0000       2.095553        57.0229 
 367   0.0000       2.102316        57.2069 
 368   0.0000       2.111956        57.4693 
 369   0.0000       2.138599        58.1942 
 370   0.0000       2.145040        58.3695 
 371   0.0000       2.160480        58.7896 
 372   0.0000       2.168066        58.9961 
 373   0.0000       2.177872        59.2629 
 374   0.0000       2.182162        59.3796 
 375   0.0000       2.190028        59.5937 
 376   0.0000       2.193757        59.6952 
 377   0.0000       2.211584        60.1803 
 378   0.0000       2.219366        60.3920 
 379   0.0000       2.224472        60.5310 
 380   0.0000       2.236192        60.8499 
 381   0.0000       2.243060        61.0368 
 382   0.0000       2.247002        61.1440 
 383   0.0000       2.247908        61.1687 
 384   0.0000       2.253173        61.3119 
 385   0.0000       2.263514        61.5933 
 386   0.0000       2.268941        61.7410 
 387   0.0000       2.296319        62.4860 
 388   0.0000       2.304381        62.7054 
 389   0.0000       2.305618        62.7391 
 390   0.0000       2.313276        62.9474 
 391   0.0000       2.329601        63.3917 
 392   0.0000       2.331006        63.4299 
 393   0.0000       2.340986        63.7015 
 394   0.0000       2.350874        63.9705 
 395   0.0000       2.369171        64.4684 
 396   0.0000       2.373656        64.5905 
 397   0.0000       2.404148        65.4202 
 398   0.0000       2.407423        65.5093 
 399   0.0000       2.418474        65.8100 
 400   0.0000       2.422050        65.9073 
 401   0.0000       2.430251        66.1305 
 402   0.0000       2.432697        66.1970 
 403   0.0000       2.440593        66.4119 
 404   0.0000       2.479401        67.4679 
 405   0.0000       2.502022        68.0835 
 406   0.0000       2.508796        68.2678 
 407   0.0000       2.510517        68.3146 
 408   0.0000       2.524449        68.6937 
 409   0.0000       2.546136        69.2839 
 410   0.0000       2.554423        69.5094 
 411   0.0000       2.573319        70.0236 
 412   0.0000       2.577968        70.1501 
 413   0.0000       2.581748        70.2529 
 414   0.0000       2.601516        70.7908 
 415   0.0000       2.603161        70.8356 
 416   0.0000       2.633717        71.6671 
 417   0.0000       2.671639        72.6990 
 418   0.0000       2.681831        72.9763 
 419   0.0000       2.687613        73.1337 
 420   0.0000       2.703530        73.5668 
 421   0.0000       2.718567        73.9760 
 422   0.0000       2.731099        74.3170 
 423   0.0000       2.741789        74.6079 
 424   0.0000       2.745434        74.7070 
 425   0.0000       2.751049        74.8598 
 426   0.0000       2.759509        75.0900 
 427   0.0000       2.778860        75.6166 
 428   0.0000       2.800375        76.2021 
 429   0.0000       2.818078        76.6838 
 430   0.0000       2.825782        76.8934 
 431   0.0000       2.846060        77.4452 
 432   0.0000       2.852471        77.6197 
 433   0.0000       2.868744        78.0625 
 434   0.0000       2.886154        78.5362 
 435   0.0000       2.889062        78.6154 
 436   0.0000       2.889943        78.6393 
 437   0.0000       2.905671        79.0673 
 438   0.0000       2.911464        79.2250 
 439   0.0000       2.918434        79.4146 
 440   0.0000       2.926832        79.6431 
 441   0.0000       2.946347        80.1742 
 442   0.0000       2.949727        80.2662 
 443   0.0000       2.974674        80.9450 
 444   0.0000       2.976705        81.0003 
 445   0.0000       3.012092        81.9632 
 446   0.0000       3.013027        81.9886 
 447   0.0000       3.019445        82.1633 
 448   0.0000       3.026682        82.3602 
 449   0.0000       3.046584        82.9018 
 450   0.0000       3.049188        82.9726 
 451   0.0000       3.187123        86.7260 
 452   0.0000       3.211553        87.3908 
 453   0.0000       3.271160        89.0128 
 454   0.0000       3.282713        89.3272 
 455   0.0000       3.382797        92.0506 
 456   0.0000       3.396705        92.4291 
 457   0.0000       3.398955        92.4903 
 458   0.0000       3.416949        92.9799 
 459   0.0000       3.426055        93.2277 
 460   0.0000       3.451867        93.9301 
 461   0.0000       3.471387        94.4612 
 462   0.0000       3.488603        94.9297 
 463   0.0000       3.500718        95.2594 
 464   0.0000       3.518354        95.7393 
 465   0.0000       3.529851        96.0521 
 466   0.0000       3.547043        96.5199 
 467   0.0000       3.560950        96.8984 
 468   0.0000       3.576062        97.3096 
 469   0.0000       3.801828       103.4530 
 470   0.0000       3.843992       104.6003 
 471   0.0000       3.861029       105.0639 
 472   0.0000       3.994391       108.6929 
 473   0.0000       4.215604       114.7124 
 474   0.0000       4.542309       123.6025 
 475   0.0000       4.559323       124.0655 
 476   0.0000       4.562709       124.1576 
 477   0.0000       4.590843       124.9232 
 478   0.0000       4.619026       125.6901 
 479   0.0000       4.619396       125.7002 
 480   0.0000       5.202117       141.5568 
 481   0.0000       7.007846       190.6932 
 482   0.0000       7.054986       191.9759 
 483   0.0000       7.058876       192.0818 
 484   0.0000      18.718979       509.3693 
 485   0.0000      18.762358       510.5497 
 486   0.0000      19.002619       517.0875 
 487   0.0000      19.004905       517.1497 
 488   0.0000      19.052963       518.4575 
 489   0.0000      19.065790       518.8065 
 490   0.0000      19.239189       523.5250 
 491   0.0000      19.334997       526.1320 
 492   0.0000      19.778546       538.2016 
 493   0.0000      21.664700       589.5265 
 494   0.0000      21.716627       590.9395 
 495   0.0000      22.038382       599.6949 
[...]
Total number of batches                      ...      238
Average number of points per batch           ...       58
Average number of grid points per atom       ...      437

Memory available               ... 849.9 MB
Memory needed per perturbation ...  34.9 MB
Perturbations treated per batch... 3
Number of batches              ... 1
     CP-SCF ITERATION   0:   4.6952e-02 (   5.5 sec   0/  3 done)
     CP-SCF ITERATION   1:   1.8625e-03 (   5.5 sec   0/  3 done)
     CP-SCF ITERATION   2:   3.8582e-04 (   5.6 sec   3/  3 done)
                    *** THE CP-SCF HAS CONVERGED ***

Forming final perturbed densities           ... done
Transforming perturbed density to AO basis  ... done

 Raw HFC matrix (all values in MHz): 
 -----------------------------------
                 0.1133              -0.7401               0.1295
                -0.7407               0.2719              -0.1209
                 0.1294              -0.1212              -0.5204

 A(FC)          -0.0442              -0.0442              -0.0442
 A(SD)          -0.4895              -0.5217               1.0111
 A(ORB+DIA)      0.0030               0.0030              -0.0086    A(PC) =  -0.0009
 A(ORB)          0.0031               0.0030              -0.0088    A(PC) =  -0.0009
 A(DIA)         -0.0000              -0.0001               0.0002    A(PC) =   0.0000
             ----------           ----------           ----------
 A(Tot)         -0.5306              -0.5629               0.9583    A(iso)=   -0.0451
 Orientation: 
  X           0.3671260            0.6508421           -0.6645473
  Y           0.4605128            0.4935573            0.7377867
  Z           0.8081748           -0.5768932           -0.1185234

Notes:  (1) The A matrix conforms to the "SAI" spin Hamiltonian convention.
        (2) Tensor is right-handed.

 Raw EFG matrix (all values in a.u.**-3):
 -----------------------------------
            -0.0965       0.0911       0.0566
             0.0911       0.1209       0.1629
             0.0566       0.1629      -0.0243

 V(El)       0.5871       0.3803      -0.9674
 V(Nuc)     -0.7145      -0.5119       1.2264
         ----------   ----------   ----------
 V(Tot)     -0.1273      -0.1316       0.2589 
 Orientation: 
  X       0.7627264    0.5786688   -0.2887748
  Y       0.1350499   -0.5791914   -0.8039271
  Z      -0.6324634    0.5741774   -0.5199138

Note: Tensor is right-handed


 Quadrupole tensor eigenvalues (in MHz;Q= 0.0029 I=  1.0)
  e**2qQ            =     0.173868 MHz 
  e**2qQ/(4I*(2I-1))=     0.043467 MHz 
  eta               =     0.016590
  NOTE: the diagonal representation of the SH term I*Q*I = e**2qQ/(4I(2I-1))*[-(1-eta),-(1+eta),2]

 RHO(0)=      0.426673827 a.u.**-3

 -----------------------------------------------------------
 Nucleus  31H : A:ISTP=    1 I=  0.5 P=533.5514 MHz/au**3
                Q:ISTP=    2 I=  1.0 Q=  0.0029 barn     
 -----------------------------------------------------------
 Solving for nuclear perturbation:
Forming RHS of the CP-SCF equations         ... 
Calc. nucleus orbit integrals (SHARK)       ... done

------------------------------------------------------------------------------
                           ORCA CP-SCF CALCULATION
------------------------------------------------------------------------------

Input orbitals are from        ... input_72.gbw
Input Perturbation             ... input_72.pin.tmp
Wavefunction output            ... input_72.pout.tmp
Perturbation mode              ... Imaginary perturbation
Solver                         ... POPLE
Max. number of iterations      ... 64
Convergence tolerance          ... 1.000e-03
Integral handling              ... Direct
DFT GridXC                     ... 1
COSX GridX                     ... 1
COSX IntAccX                   ... 3.067
COSX Algorithm                 ... Auto
Number of perturbations        ... 3
Number of operators            ... 2
Orbital ranges used for CP-SCF:
 Operator 0:  Orbitals   0...116  to 117...516
 Operator 1:  Orbitals   0...115  to 116...516
Variables per perturbation     ... 93316
DFT calculation                         ... on
XC functional terms                     ... off
Hybrid DFT                              ... on
   Exchange mixing (SCF)                ...  0.200
   Exchange mixing (CP-SCF)             ...  0.200
   GGA exch. scaling(SCF)               ...  0.720
   GGA exch. scaling (CP-SCF)           ...  0.720
   GGA corr. scaling (SCF)              ...  0.810
   GGA corr. scaling (CP-SCF)           ...  0.810

CP-SCF GRID
-----------

General Integration Accuracy     IntAcc      ... 3.467
Radial Grid Type                 RadialGrid  ... OptM3 with GC (2021)
Angular Grid (max. ang.)         AngularGrid ... 1 (Lebedev-50)
Angular grid pruning method      GridPruning ... 4 (adaptive)
Weight generation scheme         WeightScheme... Becke
Basis function cutoff            BFCut       ... 1.0000e-10
Integration weight cutoff        WCut        ... 1.0000e-14
Angular grids for H and He will be reduced by one unit
Partially contracted basis set               ... off
Rotationally invariant grid construction     ... off

Total number of grid points                  ...    31455
Total number of batches                      ...      505
Average number of points per batch           ...       62
Average number of grid points per atom       ...      983

CP-SCF GRIDX
------------

General Integration Accuracy     IntAcc      ... 3.067
Radial Grid Type                 RadialGrid  ... OptM3 with GC (2021)
Angular Grid (max. ang.)         AngularGrid ... 1 (Lebedev-50)
Angular grid pruning method      GridPruning ... 4 (adaptive)
Weight generation scheme         WeightScheme... Becke
Basis function cutoff            BFCut       ... 1.0000e-10
Integration weight cutoff        WCut        ... 1.0000e-14
Angular grids for H and He will be reduced by one unit
Partially contracted basis set               ... on
Rotationally invariant grid construction     ... off

Total number of grid points                  ...    13984
Total number of batches                      ...      238
Average number of points per batch           ...       58
Average number of grid points per atom       ...      437

Memory available               ... 846.8 MB
Memory needed per perturbation ...  34.9 MB
Perturbations treated per batch... 3
Number of batches              ... 1
     CP-SCF ITERATION   0:   4.5349e-02 (   5.5 sec   0/  3 done)
     CP-SCF ITERATION   1:   1.3129e-03 (   5.6 sec   0/  3 done)
     CP-SCF ITERATION   2:   2.2948e-04 (   5.6 sec   3/  3 done)
                    *** THE CP-SCF HAS CONVERGED ***

Forming final perturbed densities           ... done
Transforming perturbed density to AO basis  ... done

 Raw HFC matrix (all values in MHz): 
 -----------------------------------
                -0.0997              -0.3095               0.0132
                -0.3104               0.3160              -0.0379
                 0.0130              -0.0375              -0.2551

 A(FC)          -0.0127              -0.0127              -0.0127
 A(SD)          -0.2428              -0.2575               0.5003
 A(ORB+DIA)      0.0017               0.0018              -0.0041    A(PC) =  -0.0002
 A(ORB)          0.0018               0.0019              -0.0042    A(PC) =  -0.0002
 A(DIA)         -0.0001              -0.0000               0.0001    A(PC) =  -0.0000
             ----------           ----------           ----------
 A(Tot)         -0.2538              -0.2684               0.4835    A(iso)=   -0.0129
 Orientation: 
  X          -0.4407655           -0.7651944            0.4692582
  Y          -0.1811863           -0.4361750           -0.8814323
  Z           0.8791458           -0.4735281            0.0536082

Notes:  (1) The A matrix conforms to the "SAI" spin Hamiltonian convention.
        (2) Tensor is right-handed.

 Raw EFG matrix (all values in a.u.**-3):
 -----------------------------------
            -0.1284      -0.0227       0.0077
            -0.0227       0.2230      -0.1277
             0.0077      -0.1277      -0.0946

 V(El)       0.5227       0.7921      -1.3148
 V(Nuc)     -0.6526      -0.9316       1.5842
         ----------   ----------   ----------
 V(Tot)     -0.1298      -0.1396       0.2694 
 Orientation: 
  X       0.9979315    0.0227588    0.0601230
  Y       0.0491268    0.3332430   -0.9415602
  Z      -0.0414643    0.9425663    0.3314356

Note: Tensor is right-handed


 Quadrupole tensor eigenvalues (in MHz;Q= 0.0029 I=  1.0)
  e**2qQ            =     0.180914 MHz 
  e**2qQ/(4I*(2I-1))=     0.045229 MHz 
  eta               =     0.036258
  NOTE: the diagonal representation of the SH term I*Q*I = e**2qQ/(4I(2I-1))*[-(1-eta),-(1+eta),2]

 RHO(0)=      0.433195952 a.u.**-3

 -----------------------------------------------------------
 Nucleus   0V : A:ISTP=   51 I=  3.5 P=140.5173 MHz/au**3
                Q:ISTP=   51 I=  3.5 Q= -0.0430 barn     
 -----------------------------------------------------------
 Solving for nuclear perturbation:
Forming RHS of the CP-SCF equations         ... 
Calc. nucleus orbit integrals (SHARK)       ... done

------------------------------------------------------------------------------
                           ORCA CP-SCF CALCULATION
------------------------------------------------------------------------------

Input orbitals are from        ... input_72.gbw
Input Perturbation             ... input_72.pin.tmp
Wavefunction output            ... input_72.pout.tmp
Perturbation mode              ... Imaginary perturbation
Solver                         ... POPLE
Max. number of iterations      ... 64
Convergence tolerance          ... 1.000e-03
Integral handling              ... Direct
DFT GridXC                     ... 1
COSX GridX                     ... 1
COSX IntAccX                   ... 3.067
COSX Algorithm                 ... Auto
Number of perturbations        ... 3
Number of operators            ... 2
Orbital ranges used for CP-SCF:
 Operator 0:  Orbitals   0...116  to 117...516
 Operator 1:  Orbitals   0...115  to 116...516
Variables per perturbation     ... 93316
DFT calculation                         ... on
XC functional terms                     ... off
Hybrid DFT                              ... on
   Exchange mixing (SCF)                ...  0.200
   Exchange mixing (CP-SCF)             ...  0.200
   GGA exch. scaling(SCF)               ...  0.720
   GGA exch. scaling (CP-SCF)           ...  0.720
   GGA corr. scaling (SCF)              ...  0.810
   GGA corr. scaling (CP-SCF)           ...  0.810

CP-SCF GRID
-----------

General Integration Accuracy     IntAcc      ... 3.467
Radial Grid Type                 RadialGrid  ... OptM3 with GC (2021)
Angular Grid (max. ang.)         AngularGrid ... 1 (Lebedev-50)
Angular grid pruning method      GridPruning ... 4 (adaptive)
Weight generation scheme         WeightScheme... Becke
Basis function cutoff            BFCut       ... 1.0000e-10
Integration weight cutoff        WCut        ... 1.0000e-14
Angular grids for H and He will be reduced by one unit
Partially contracted basis set               ... off
Rotationally invariant grid construction     ... off

Total number of grid points                  ...    31455
Total number of batches                      ...      505
Average number of points per batch           ...       62
Average number of grid points per atom       ...      983

CP-SCF GRIDX
------------

General Integration Accuracy     IntAcc      ... 3.067
Radial Grid Type                 RadialGrid  ... OptM3 with GC (2021)
Angular Grid (max. ang.)         AngularGrid ... 1 (Lebedev-50)
Angular grid pruning method      GridPruning ... 4 (adaptive)
Weight generation scheme         WeightScheme... Becke
Basis function cutoff            BFCut       ... 1.0000e-10
Integration weight cutoff        WCut        ... 1.0000e-14
Angular grids for H and He will be reduced by one unit
Partially contracted basis set               ... on
Rotationally invariant grid construction     ... off

Total number of grid points                  ...    13984
Total number of batches                      ...      238
Average number of points per batch           ...       58
Average number of grid points per atom       ...      437

Memory available               ... 843.7 MB
Memory needed per perturbation ...  34.9 MB
Perturbations treated per batch... 3
Number of batches              ... 1
     CP-SCF ITERATION   0:   1.1789e+01 (   5.8 sec   0/  3 done)
     CP-SCF ITERATION   1:   1.8490e+00 (   5.6 sec   0/  3 done)
     CP-SCF ITERATION   2:   3.2577e-01 (   5.6 sec   0/  3 done)
     CP-SCF ITERATION   3:   3.8375e-02 (   5.6 sec   0/  3 done)
     CP-SCF ITERATION   4:   8.1101e-03 (   5.6 sec   0/  3 done)
     CP-SCF ITERATION   5:   2.0015e-03 (   5.6 sec   0/  3 done)
     CP-SCF ITERATION   6:   3.1164e-04 (   5.6 sec   3/  3 done)
                    *** THE CP-SCF HAS CONVERGED ***

Forming final perturbed densities           ... done
Transforming perturbed density to AO basis  ... done

 Raw HFC matrix (all values in MHz): 
 -----------------------------------
              -310.3762              -1.4558            -122.1651
                -1.4023             -80.9056              -7.3761
              -122.1364              -7.3936            -137.9464

 A(FC)        -165.3031            -165.3031            -165.3031
 A(SD)         100.7453              88.5612            -189.3065
 A(ORB+DIA)     -6.5234              -7.6576             -19.1381    A(PC) = -11.1064
 A(ORB)         -6.5230              -7.6581             -19.1380    A(PC) = -11.1064
 A(DIA)         -0.0004               0.0005              -0.0001    A(PC) =  -0.0000
             ----------           ----------           ----------
 A(Tot)        -71.0811             -84.3995            -373.7477    A(iso)= -176.4094
 Orientation: 
  X           0.3874048            0.2491539           -0.8876034
  Y           0.5146668           -0.8572410           -0.0159988
  Z          -0.7648762           -0.4506221           -0.4603305

Notes:  (1) The A matrix conforms to the "SAI" spin Hamiltonian convention.
        (2) Tensor is right-handed.

 Raw EFG matrix (all values in a.u.**-3):
 -----------------------------------
             0.2181       0.0162       0.1689
             0.0162      -0.1772      -0.0446
             0.1689      -0.0446      -0.0409

 V(El)       0.1408      -0.4687       0.3279
 V(Nuc)     -0.2375       0.2639      -0.0264
         ----------   ----------   ----------
 V(Tot)     -0.0966      -0.2048       0.3015 
 Orientation: 
  X      -0.3879225   -0.2153239   -0.8961873
  Y      -0.5045681    0.8633020    0.0109841
  Z       0.7713152    0.4564485   -0.4435399

Note: Tensor is right-handed


 Quadrupole tensor eigenvalues (in MHz;Q=-0.0430 I=  3.5)
  e**2qQ            =    -3.046076 MHz 
  e**2qQ/(4I*(2I-1))=    -0.036263 MHz 
  eta               =     0.358916
  NOTE: the diagonal representation of the SH term I*Q*I = e**2qQ/(4I(2I-1))*[-(1-eta),-(1+eta),2]

 RHO(0)=   8115.217876351 a.u.**-3


--------------------------------------------------------------------------------
----------------------------------------------------------------------------
                           ORCA EULER ANGLE PROGRAM
----------------------------------------------------------------------------

Only g-tensor available        -->  using g-tensor as reference tensor

Reference tensor               ...  g

g-tensor ordering              ...  |g_min> --> |gx>
                                    |g_mid> --> |gy>
                                    |g_max> --> |gz>

A- and EFG-tensor ordering     ...  the axes |Ax>, |Qx>, |Ay>, etc. are assigned
                                    such that the Euler rotation is minimal. You
                                    can find the respective eigenvalues as Ax,
                                    EFGx, Ay, etc. in the tables below.
                                    The relation of |Ax>, |Ay>,  etc. to Amin, Amid, etc.
                                    (as printed in the ORCA EPR/NMR CALCULATION Output)
                                    is obtained in the detailed printout.

Euler rotation around          ...  z - y - z
   First rotation              -->  by alpha around z
   Second rotation             -->  by beta around y'
   Third rotation              -->  by gamma around z''
   Positive / Negative angle   -->  clockwise / counterclockwise rotation

Plot EFG-tensors                    (-)
Plot HFC-tensors                    (-)
Detailed Printout                   (-)

-------------------------------------------------------------------------
          Euler rotation of hyperfine tensor to g-tensor
-------------------------------------------------------------------------

-------------------------------------------------------------------
 Atom  |   Alpha    Beta    Gamma   |   Ax       Ay       Az 
       |          [degrees]         |           [MHz]         
-------------------------------------------------------------------
 19H     -145.4     30.3   -171.4      -0.47     0.82    -0.51
 20H      -66.0     22.3     93.4      -0.29     0.50    -0.28
 21H      -22.6      1.3     55.4      -0.14     0.47    -0.14
 22H      -21.6      1.5     38.6      -0.23     0.47    -0.24
 23H      115.0     21.4    -87.8      -0.29     0.50    -0.27
 24H       32.6     30.2     10.2      -0.48     0.82    -0.51
 26H       66.9     19.7    -93.1      -0.27     0.48    -0.25
 27H      139.4     19.2    177.8      -0.53     0.95    -0.56
 28H     -174.6      5.2    153.8      -0.20     0.44    -0.21
 29H       -2.2      9.0    -30.9      -0.09     0.47    -0.09
 30H      -44.0     18.6      0.9      -0.53     0.96    -0.56
 31H     -117.0     21.3     90.7      -0.27     0.48    -0.25
  0V      -93.8      0.7     92.8    -373.75   -84.40   -71.08
-------------------------------------------------------------------


-------------------------------------------------------------------------------
    Euler rotation of Electric Field Gradient (EFG) tensor to g-tensor
-------------------------------------------------------------------------------

-------------------------------------------------------------------
 Atom  |   Alpha    Beta    Gamma  |   EFGx     EFGy     EFGz
       |          [degrees]        |         [a.u.**-3]       
-------------------------------------------------------------------
 19H       13.8     40.1    -48.9     -0.12     0.25    -0.13
 20H       15.2     34.0    -52.0     -0.12    -0.13     0.25
 21H      -99.9      0.5     86.6      0.27    -0.14    -0.13
 22H     -127.5      0.6     85.7     -0.14     0.28    -0.13
 23H     -163.5     34.9    127.0     -0.12    -0.13     0.25
 24H     -165.0     40.9    130.2     -0.12     0.25    -0.13
 26H      -51.9     44.8     74.1     -0.13    -0.14     0.27
 27H      167.8     32.1   -139.7     -0.13     0.26    -0.13
 28H      -89.1      0.8    118.3     -0.14     0.27    -0.13
 29H      -93.8      0.7    118.0      0.26    -0.13    -0.12
 30H      -15.0     32.4     42.6     -0.13     0.26    -0.13
 31H      129.7     43.7   -107.1     -0.13    -0.14     0.27
  0V      -96.4      1.4     97.2      0.30    -0.20    -0.10
-------------------------------------------------------------------


Maximum memory used throughout the entire EPRNMR-calculation: 244.7 MB

Timings for individual modules:

Sum of individual times         ...     2602.522 sec (=  43.375 min)
GTO integral calculation        ...        1.242 sec (=   0.021 min)   0.0 %
Spin-Orbit-Coupling Matrices    ...       10.909 sec (=   0.182 min)   0.4 %
SCF iterations                  ...      230.879 sec (=   3.848 min)   8.9 %
EPR/NMR calculation             ...     2359.492 sec (=  39.325 min)  90.7 %
                             ****ORCA TERMINATED NORMALLY****
TOTAL RUN TIME: 0 days 0 hours 43 minutes 23 seconds 535 msec
