
                                 *****************
                                 * O   R   C   A *
                                 *****************

                                            #,                                       
                                            ###                                      
                                            ####                                     
                                            #####                                    
                                            ######                                   
                                           ########,                                 
                                     ,,################,,,,,                         
                               ,,#################################,,                 
                          ,,##########################################,,             
                       ,#########################################, ''#####,          
                    ,#############################################,,   '####,        
                  ,##################################################,,,,####,       
                ,###########''''           ''''###############################       
              ,#####''   ,,,,##########,,,,          '''####'''          '####       
            ,##' ,,,,###########################,,,                        '##       
           ' ,,###''''                  '''############,,,                           
         ,,##''                                '''############,,,,        ,,,,,,###''
      ,#''                                            '''#######################'''  
     '                                                          ''''####''''         
             ,#######,   #######,   ,#######,      ##                                
            ,#'     '#,  ##    ##  ,#'     '#,    #''#        ######   ,####,        
            ##       ##  ##   ,#'  ##            #'  '#       #        #'  '#        
            ##       ##  #######   ##           ,######,      #####,   #    #        
            '#,     ,#'  ##    ##  '#,     ,#' ,#      #,         ##   #,  ,#        
             '#######'   ##     ##  '#######'  #'      '#     #####' # '####'        



                  #######################################################
                  #                        -***-                        #
                  #          Department of theory and spectroscopy      #
                  #    Directorship and core code : Frank Neese         #
                  #        Max Planck Institute fuer Kohlenforschung    #
                  #                Kaiser Wilhelm Platz 1               #
                  #                 D-45470 Muelheim/Ruhr               #
                  #                      Germany                        #
                  #                                                     #
                  #                  All rights reserved                #
                  #                        -***-                        #
                  #######################################################


                         Program Version 5.0.4 -  RELEASE  -


 With contributions from (in alphabetic order):
   Daniel Aravena         : Magnetic Suceptibility
   Michael Atanasov       : Ab Initio Ligand Field Theory (pilot matlab implementation)
   Alexander A. Auer      : GIAO ZORA, VPT2 properties, NMR spectrum
   Ute Becker             : Parallelization
   Giovanni Bistoni       : ED, misc. LED, open-shell LED, HFLD
   Martin Brehm           : Molecular dynamics
   Dmytro Bykov           : SCF Hessian
   Vijay G. Chilkuri      : MRCI spin determinant printing, contributions to CSF-ICE
   Dipayan Datta          : RHF DLPNO-CCSD density
   Achintya Kumar Dutta   : EOM-CC, STEOM-CC
   Dmitry Ganyushin       : Spin-Orbit,Spin-Spin,Magnetic field MRCI
   Miquel Garcia          : C-PCM and meta-GGA Hessian, CC/C-PCM, Gaussian charge scheme
   Yang Guo               : DLPNO-NEVPT2, F12-NEVPT2, CIM, IAO-localization
   Andreas Hansen         : Spin unrestricted coupled pair/coupled cluster methods
   Benjamin Helmich-Paris : MC-RPA, TRAH-SCF, COSX integrals
   Lee Huntington         : MR-EOM, pCC
   Robert Izsak           : Overlap fitted RIJCOSX, COSX-SCS-MP3, EOM
   Marcus Kettner         : VPT2
   Christian Kollmar      : KDIIS, OOCD, Brueckner-CCSD(T), CCSD density, CASPT2, CASPT2-K
   Simone Kossmann        : Meta GGA functionals, TD-DFT gradient, OOMP2, MP2 Hessian
   Martin Krupicka        : Initial AUTO-CI
   Lucas Lang             : DCDCAS
   Marvin Lechner         : AUTO-CI (C++ implementation), FIC-MRCC
   Dagmar Lenk            : GEPOL surface, SMD
   Dimitrios Liakos       : Extrapolation schemes; Compound Job, initial MDCI parallelization
   Dimitrios Manganas     : Further ROCIS development; embedding schemes
   Dimitrios Pantazis     : SARC Basis sets
   Anastasios Papadopoulos: AUTO-CI, single reference methods and gradients
   Taras Petrenko         : DFT Hessian,TD-DFT gradient, ASA, ECA, R-Raman, ABS, FL, XAS/XES, NRVS
   Peter Pinski           : DLPNO-MP2, DLPNO-MP2 Gradient
   Christoph Reimann      : Effective Core Potentials
   Marius Retegan         : Local ZFS, SOC
   Christoph Riplinger    : Optimizer, TS searches, QM/MM, DLPNO-CCSD(T), (RO)-DLPNO pert. Triples
   Tobias Risthaus        : Range-separated hybrids, TD-DFT gradient, RPA, STAB
   Michael Roemelt        : Original ROCIS implementation
   Masaaki Saitow         : Open-shell DLPNO-CCSD energy and density
   Barbara Sandhoefer     : DKH picture change effects
   Avijit Sen             : IP-ROCIS
   Kantharuban Sivalingam : CASSCF convergence, NEVPT2, FIC-MRCI
   Bernardo de Souza      : ESD, SOC TD-DFT
   Georgi Stoychev        : AutoAux, RI-MP2 NMR, DLPNO-MP2 response
   Willem Van den Heuvel  : Paramagnetic NMR
   Boris Wezisla          : Elementary symmetry handling
   Frank Wennmohs         : Technical directorship


 We gratefully acknowledge several colleagues who have allowed us to
 interface, adapt or use parts of their codes:
   Stefan Grimme, W. Hujo, H. Kruse, P. Pracht,  : VdW corrections, initial TS optimization,
                  C. Bannwarth, S. Ehlert          DFT functionals, gCP, sTDA/sTD-DF
   Ed Valeev, F. Pavosevic, A. Kumar             : LibInt (2-el integral package), F12 methods
   Garnet Chan, S. Sharma, J. Yang, R. Olivares  : DMRG
   Ulf Ekstrom                                   : XCFun DFT Library
   Mihaly Kallay                                 : mrcc  (arbitrary order and MRCC methods)
   Jiri Pittner, Ondrej Demel                    : Mk-CCSD
   Frank Weinhold                                : gennbo (NPA and NBO analysis)
   Christopher J. Cramer and Donald G. Truhlar   : smd solvation model
   Lars Goerigk                                  : TD-DFT with DH, B97 family of functionals
   V. Asgeirsson, H. Jonsson                     : NEB implementation
   FAccTs GmbH                                   : IRC, NEB, NEB-TS, DLPNO-Multilevel, CI-OPT
                                                   MM, QMMM, 2- and 3-layer-ONIOM, Crystal-QMMM,
                                                   LR-CPCM, SF, NACMEs, symmetry and pop. for TD-DFT,
                                                   nearIR, NL-DFT gradient (VV10), updates on ESD,
                                                   ML-optimized integration grids
   S Lehtola, MJT Oliveira, MAL Marques          : LibXC Library
   Liviu Ungur et al                             : ANISO software


 Your calculation uses the libint2 library for the computation of 2-el integrals
 For citations please refer to: http://libint.valeyev.net

 Your ORCA version has been built with support for libXC version: 5.1.0
 For citations please refer to: https://tddft.org/programs/libxc/

 This ORCA versions uses:
   CBLAS   interface :  Fast vector & matrix operations
   LAPACKE interface :  Fast linear algebra routines
   SCALAPACK package :  Parallel linear algebra routines
   Shared memory     :  Shared parallel matrices
   BLAS/LAPACK       :  OpenBLAS 0.3.15  USE64BITINT DYNAMIC_ARCH NO_AFFINITY Prescott SINGLE_THREADED
        Core in use  :  Prescott
   Copyright (c) 2011-2014, The OpenBLAS Project


================================================================================

----- Orbital basis set information -----
Your calculation utilizes the basis: TZVP 

The basis set includes element-specific modifications.

Your calculation utilizes the basis: CP(PPP) 

----- AuxJ basis set information -----
Your calculation utilizes the auxiliary basis: def2/J
   F. Weigend, Phys. Chem. Chem. Phys. 8, 1057 (2006).

================================================================================
                                        WARNINGS
                       Please study these warnings very carefully!
================================================================================


WARNING: your system is open-shell and RHF/RKS was chosen
  ===> : WILL SWITCH to UHF/UKS


INFO   : the flag for use of the SHARK integral package has been found!

================================================================================
                                       INPUT FILE
================================================================================
NAME = input_56.inp
|  1> ! nofrozencore ReducedPop printbasis
|  2> ! B3LYP TZVP
|  3> 
|  4> %basis
|  5> newgto V "CP(PPP)" end
|  6> end
|  7> 
|  8> %pal
|  9> nprocs 4
| 10> end
| 11> 
| 12> % sym SymThresh 1e-2 end
| 13> * xyz -2 2 
| 14> V 0.02473182229899554 0.487608279413372 1.002875498118935
| 15> S 0.5321965198419065 -1.8889846457155828 1.3190472935872832
| 16> S 2.2647558627568034 0.65445130363798 0.026877305505513507
| 17> S -2.24940848787218 -0.3380857962495829 0.6213969018967499
| 18> S -0.51479907739405 2.2210054711262077 -0.6437174337329143
| 19> O 0.06042031635157331 1.1802261580777123 2.4410089670667126
| 20> C 2.2207885947905934 2.1654963611017233 -0.8933967768025679
| 21> C 1.0617243913639123 2.8200003073385718 -1.1687600849016417
| 22> C -1.0541699132826052 -2.6375131127395504 1.539034001187002
| 23> C -2.214100158032732 -1.9910069027070723 1.248259423898423
| 24> S 3.836303915137328 2.7610050590495465 -1.4409598272501634
| 25> S 1.0132513611524925 4.334258735635039 -2.1439220806286268
| 26> S -3.833679628243617 -2.7637941944524127 1.4357477613445964
| 27> S -1.011469094934282 -4.337016611053739 2.1441269130048646
| 28> C 1.4269501227342651 3.7964108723741488 -3.7906963775714106
| 29> C -3.8159922383270555 -4.078187862058971 0.13807124259436468
| 30> C 3.689528203141449 2.6211838501723057 -3.3476018581847096
| 31> C -1.6099578536971806 -5.307404023477601 0.6927796744582905
| 32> C 3.174409557606262 3.5893724470237163 -4.020161295810033
| 33> H 3.186188305252995 1.7013133560252844 -3.6937396475986284
| 34> H 4.747814231001016 2.547027939691112 -3.6247666080572816
| 35> H 3.549471238583036 3.2892876794190933 -5.0433659458886755
| 36> H 3.6909871115322797 4.524106743445679 -3.772645860989597
| 37> H 1.0377017936527901 4.522860246545375 -4.511692996068692
| 38> H 0.8184836892688111 2.8771425511059316 -3.8624785704296887
| 39> C -3.1276916389943104 -5.3868366203708025 0.5143728897766281
| 40> H -1.2084914717890243 -6.314083553020349 0.8461604305692414
| 41> H -1.1293835651595865 -4.888103045173515 -0.19381350009180734
| 42> H -3.5779764077002287 -5.778970773883361 1.4327414528391094
| 43> H -3.337597504851217 -6.118020494066027 -0.2830487243886192
| 44> H -3.3680299512573226 -3.6420133486747375 -0.7574087050573304
| 45> H -4.871906905803975 -4.271188880405785 -0.07619764366120044
| 46> * 
| 47> 
| 48> % eprnmr
| 49> gtensor true
| 50> Nuclei = all H {aiso,adip,aorb,fgrad,rho}
| 51> Nuclei = all V {aiso,adip,aorb,fgrad,rho}
| 52> end
| 53> 
| 54>                          ****END OF INPUT****
================================================================================

------------------------------------------------------------------------------
                            SYMMETRY HANDLING SETUP
------------------------------------------------------------------------------

------------------
SYMMETRY DETECTION
------------------
The point group will now be determined using a tolerance of 1.0000e-02.
Splitting atom subsets according to nuclear charge, mass and basis set.
Splitting atom subsets according to distance from the molecule's center.
Identifying relative distance patterns of the atoms.
Splitting atom subsets according to atoms' relative distance patterns.
Bring atoms of each subset into input order.
The molecule is neither linear nor planar.
There is at least one atom subset not centered around the molecule's center.
The molecule does not have a center of inversion.
Analyzing the first atom subset for its symmetry.
The atom subset represents a 4-gon with alternating side lengths
that is not centered around the molecule's center.
Testing point group C2v.
Test failed.
Testing point group C2.
Test failed.
Testing point group Cs.
Test failed.
Testing point group Cs.
Test failed.
No testing is needed for point group C1.
This point group has been found:    C1
Largest non-degenerate subgroup:    C1


Mass-centered symmetry-perfected Cartesians (point group C1):

Atom          Symmetry-perfected Cartesians (x, y, z; au)
  0       0.046876265875    0.922535766907    1.897114953355
  1       1.005845566864   -3.568573993401    2.494593058061
  2       4.279908235740    1.237823390047    0.052745662114
  3      -4.250626110460   -0.637799906497    1.176224880543
  4      -0.972689375333    4.198181740553   -1.214494741895
  5       0.114317745766    2.231393873040    4.614793353693
  6       4.196822140427    4.093284724669   -1.686320321594
  7       2.006508224319    5.330117936627   -2.206681561232
  8      -1.991952539787   -4.983087799521    2.910307688527
  9      -4.183903036817   -3.761368118680    2.360823370745
 10       7.249703661036    5.218633074158   -2.721064527995
 11       1.914907472338    8.191651662089   -4.049470669364
 12      -7.244464687637   -5.221724459853    2.715124981822
 13      -1.911259687414   -8.194683974975    4.053767577440
 14       2.696684833670    7.175266498812   -7.161423094967
 15      -7.211040364671   -7.705568523790    0.262871750964
 16       6.972337762253    4.954409281666   -6.324095801884
 17      -3.042239535707  -10.028450428261    1.311118771364
 18       5.998904595715    6.784020575701   -7.595048947780
 19       6.021163202967    3.216105969054   -6.978201428478
 20       8.972208526262    4.814274919645   -6.847861273120
 21       6.707668456089    6.216942547967   -9.528625515384
 22       6.975094699566    8.550412403922   -7.127312562051
 23       1.961112093619    8.548056866154   -8.523909247410
 24       1.546849912736    5.438101128025   -7.297071780761
 25      -5.910340734118  -10.178556282495    0.973978807882
 26      -2.283578021924  -11.930799043722    1.600966394627
 27      -2.134085743367   -9.236086411581   -0.364299520740
 28      -6.761255629248  -10.919582440391    2.709443882073
 29      -6.307005334491  -11.560293557319   -0.532929656160
 30      -6.364514323784   -6.881318146897   -1.429340108516
 31      -9.206429906993   -8.070287592033   -0.142037763079


------------------
SYMMETRY REDUCTION
------------------
ORCA supports only abelian point groups.
It is now checked, if the determined point group is supported:
Point Group ( C1    ) is          ... supported

The point group is C1 - hence turning off symmetry
If this is a round-off problem, please increase the symmetry
        detection tolerance (%method SymThresh)

Storing the symmetry object:
Symmetry file                     ... input_56.sym.tmp
Writing symmetry information      ... done

                       ****************************
                       * Single Point Calculation *
                       ****************************

---------------------------------
CARTESIAN COORDINATES (ANGSTROEM)
---------------------------------
  V      0.024806    0.488185    1.003910
  S      0.532271   -1.888408    1.320082
  S      2.264830    0.655028    0.027912
  S     -2.249334   -0.337509    0.622431
  S     -0.514725    2.221582   -0.642683
  O      0.060494    1.180803    2.442043
  C      2.220863    2.166073   -0.892362
  C      1.061798    2.820577   -1.167726
  C     -1.054096   -2.636936    1.540068
  C     -2.214026   -1.990430    1.249294
  S      3.836378    2.761582   -1.439925
  S      1.013325    4.334835   -2.142888
  S     -3.833606   -2.763218    1.436782
  S     -1.011395   -4.336440    2.145161
  C      1.427024    3.796987   -3.789662
  C     -3.815918   -4.077611    0.139106
  C      3.689602    2.621760   -3.346567
  C     -1.609884   -5.306827    0.693814
  C      3.174484    3.589949   -4.019127
  H      3.186262    1.701890   -3.692705
  H      4.747888    2.547605   -3.623732
  H      3.549545    3.289864   -5.042331
  H      3.691061    4.524683   -3.771611
  H      1.037776    4.523437   -4.510658
  H      0.818558    2.877719   -3.861444
  C     -3.127618   -5.386260    0.515407
  H     -1.208417   -6.313507    0.847195
  H     -1.129310   -4.887526   -0.192779
  H     -3.577902   -5.778394    1.433776
  H     -3.337523   -6.117444   -0.282014
  H     -3.367956   -3.641437   -0.756374
  H     -4.871833   -4.270612   -0.075163

----------------------------
CARTESIAN COORDINATES (A.U.)
----------------------------
  NO LB      ZA    FRAG     MASS         X           Y           Z
   0 V    23.0000    0    50.940    0.046876    0.922536    1.897115
   1 S    16.0000    0    32.060    1.005846   -3.568574    2.494593
   2 S    16.0000    0    32.060    4.279908    1.237823    0.052746
   3 S    16.0000    0    32.060   -4.250626   -0.637800    1.176225
   4 S    16.0000    0    32.060   -0.972689    4.198182   -1.214495
   5 O     8.0000    0    15.999    0.114318    2.231394    4.614793
   6 C     6.0000    0    12.011    4.196822    4.093285   -1.686320
   7 C     6.0000    0    12.011    2.006508    5.330118   -2.206682
   8 C     6.0000    0    12.011   -1.991953   -4.983088    2.910308
   9 C     6.0000    0    12.011   -4.183903   -3.761368    2.360823
  10 S    16.0000    0    32.060    7.249704    5.218633   -2.721065
  11 S    16.0000    0    32.060    1.914907    8.191652   -4.049471
  12 S    16.0000    0    32.060   -7.244465   -5.221724    2.715125
  13 S    16.0000    0    32.060   -1.911260   -8.194684    4.053768
  14 C     6.0000    0    12.011    2.696685    7.175266   -7.161423
  15 C     6.0000    0    12.011   -7.211040   -7.705569    0.262872
  16 C     6.0000    0    12.011    6.972338    4.954409   -6.324096
  17 C     6.0000    0    12.011   -3.042240  -10.028450    1.311119
  18 C     6.0000    0    12.011    5.998905    6.784021   -7.595049
  19 H     1.0000    0     1.008    6.021163    3.216106   -6.978201
  20 H     1.0000    0     1.008    8.972209    4.814275   -6.847861
  21 H     1.0000    0     1.008    6.707668    6.216943   -9.528626
  22 H     1.0000    0     1.008    6.975095    8.550412   -7.127313
  23 H     1.0000    0     1.008    1.961112    8.548057   -8.523909
  24 H     1.0000    0     1.008    1.546850    5.438101   -7.297072
  25 C     6.0000    0    12.011   -5.910341  -10.178556    0.973979
  26 H     1.0000    0     1.008   -2.283578  -11.930799    1.600966
  27 H     1.0000    0     1.008   -2.134086   -9.236086   -0.364300
  28 H     1.0000    0     1.008   -6.761256  -10.919582    2.709444
  29 H     1.0000    0     1.008   -6.307005  -11.560294   -0.532930
  30 H     1.0000    0     1.008   -6.364514   -6.881318   -1.429340
  31 H     1.0000    0     1.008   -9.206430   -8.070288   -0.142038

--------------------------------
INTERNAL COORDINATES (ANGSTROEM)
--------------------------------
 V      0   0   0     0.000000000000     0.00000000     0.00000000
 S      1   0   0     2.450648680508     0.00000000     0.00000000
 S      1   2   0     2.449105299604    85.87595980     0.00000000
 S      1   2   3     2.449287810019    83.42125816   145.68229485
 S      1   2   3     2.450923846060   144.89804883    72.40166068
 O      1   2   3     1.596628030870   107.44886203   252.42006617
 C      3   1   2     1.769772491849   104.04399554   161.51758179
 C      7   3   1     1.359275613977   122.52324477   346.95015680
 C      2   1   3     1.767836948819   103.93712560   198.78224024
 C      9   2   1     1.359396302442   122.52674532    13.70956564
 S      7   3   1     1.806750025272   114.63243751   167.19752493
 S      8   7   3     1.801740586276   122.49764854   181.71043961
 S     10   9   2     1.804269862102   122.68372170   178.57683973
 S      9   2   1     1.804514597503   114.78834948   192.41710268
 C     12   8   7     1.781093084154   103.90864054    69.60482752
 C     13  10   9     1.847135053136   102.89592577   292.71692557
 C     11   7   3     1.917388044766   102.05694414   114.57216557
 C     14   9   2     1.845602701394   102.93362282   248.66508972
 C     17  11   7     1.286496239866   119.71095355    86.28306802
 H     17  11   7     1.104230115542   114.03846211   318.82352394
 H     17  11   7     1.096489267797   100.50999793   203.88086353
 H     19  17  11     1.130340607175    98.08131236   163.48349236
 H     19  17  11     1.096286670813   109.57072741    53.32574991
 H     15  12   8     1.095024693243   109.01861244   157.06573686
 H     15  12   8     1.104734506727   100.56932962    43.38729275
 C     16  13  10     1.525753000110   116.19212784    82.74510302
 H     18  14   9     1.094579639564   104.73975983   156.57849747
 H     18  14   9     1.092159518738   107.08682464    42.29195063
 H     26  16  13     1.095411513953   109.17003139    55.24801795
 H     26  16  13     1.102076022973   107.73874585   170.99975543
 H     16  13  10     1.092155095858   107.20334707   317.85772137
 H     16  13  10     1.094585005239   104.69985571   203.53022234

---------------------------
INTERNAL COORDINATES (A.U.)
---------------------------
 V      0   0   0     0.000000000000     0.00000000     0.00000000
 S      1   0   0     4.631054856615     0.00000000     0.00000000
 S      1   2   0     4.628138289386    85.87595980     0.00000000
 S      1   2   3     4.628483184087    83.42125816   145.68229485
 S      1   2   3     4.631574844151   144.89804883    72.40166068
 O      1   2   3     3.017189716087   107.44886203   252.42006617
 C      3   1   2     3.344385328942   104.04399554   161.51758179
 C      7   3   1     2.568658650934   122.52324477   346.95015680
 C      2   1   3     3.340727682695   103.93712560   198.78224024
 C      9   2   1     2.568886719081   122.52674532    13.70956564
 S      7   3   1     3.414262740220   114.63243751   167.19752493
 S      8   7   3     3.404796272433   122.49764854   181.71043961
 S     10   9   2     3.409575911061   122.68372170   178.57683973
 S      9   2   1     3.410038393944   114.78834948   192.41710268
 C     12   8   7     3.365778148072   103.90864054    69.60482752
 C     13  10   9     3.490579382792   102.89592577   292.71692557
 C     11   7   3     3.623338297062   102.05694414   114.57216557
 C     14   9   2     3.487683657660   102.93362282   248.66508972
 C     17  11   7     2.431125565667   119.71095355    86.28306802
 H     17  11   7     2.086692507202   114.03846211   318.82352394
 H     17  11   7     2.072064424920   100.50999793   203.88086353
 H     19  17  11     2.136034185610    98.08131236   163.48349236
 H     19  17  11     2.071681572105   109.57072741    53.32574991
 H     15  12   8     2.069296780110   109.01861244   157.06573686
 H     15  12   8     2.087645668406   100.56932962    43.38729275
 C     16  13  10     2.883255318217   116.19212784    82.74510302
 H     18  14   9     2.068455750542   104.73975983   156.57849747
 H     18  14   9     2.063882384969   107.08682464    42.29195063
 H     26  16  13     2.070027765315   109.17003139    55.24801795
 H     26  16  13     2.082621862179   107.73874585   170.99975543
 H     16  13  10     2.063874026938   107.20334707   317.85772137
 H     16  13  10     2.068465890198   104.69985571   203.53022234

---------------------
BASIS SET INFORMATION
---------------------
There are 5 groups of distinct atoms

 Group   1 Type V   : 17s11p5d1f contracted to 17s7p3d1f pattern {11111111111111111/3311111/311/1}
 Group   2 Type S   : 14s9p1d contracted to 5s4p1d pattern {73211/6111/1}
 Group   3 Type O   : 11s6p1d contracted to 5s3p1d pattern {62111/411/1}
 Group   4 Type C   : 11s6p1d contracted to 5s3p1d pattern {62111/411/1}
 Group   5 Type H   : 5s1p contracted to 3s1p pattern {311/1}

Atom   0V    basis set group =>   1
Atom   1S    basis set group =>   2
Atom   2S    basis set group =>   2
Atom   3S    basis set group =>   2
Atom   4S    basis set group =>   2
Atom   5O    basis set group =>   3
Atom   6C    basis set group =>   4
Atom   7C    basis set group =>   4
Atom   8C    basis set group =>   4
Atom   9C    basis set group =>   4
Atom  10S    basis set group =>   2
Atom  11S    basis set group =>   2
Atom  12S    basis set group =>   2
Atom  13S    basis set group =>   2
Atom  14C    basis set group =>   4
Atom  15C    basis set group =>   4
Atom  16C    basis set group =>   4
Atom  17C    basis set group =>   4
Atom  18C    basis set group =>   4
Atom  19H    basis set group =>   5
Atom  20H    basis set group =>   5
Atom  21H    basis set group =>   5
Atom  22H    basis set group =>   5
Atom  23H    basis set group =>   5
Atom  24H    basis set group =>   5
Atom  25C    basis set group =>   4
Atom  26H    basis set group =>   5
Atom  27H    basis set group =>   5
Atom  28H    basis set group =>   5
Atom  29H    basis set group =>   5
Atom  30H    basis set group =>   5
Atom  31H    basis set group =>   5

-------------------------
BASIS SET IN INPUT FORMAT
-------------------------

 # Basis set for element : H 
 NewGTO H 
 S 3 
   1      34.0613410000      0.0254393168
   2       5.1235746000      0.1900859340
   3       1.1646626000      0.8524411390
 S 1 
   1       0.3272304100      1.0000000000
 S 1 
   1       0.1030724100      1.0000000000
 P 1 
   1       0.8000000000      1.0000000000
  end;

 # Basis set for element : C 
 NewGTO C 
 S 6 
   1   13575.3496820000      0.0006064601
   2    2035.2333680000      0.0046978985
   3     463.2256235900      0.0243324735
   4     131.2001959800      0.0973999560
   5      42.8530158900      0.3019558443
   6      15.5841857700      0.6623361013
 S 2 
   1       6.2067138500      0.6559530795
   2       2.5764896500      0.3758563390
 S 1 
   1       0.5769633900      1.0000000000
 S 1 
   1       0.2297283100      1.0000000000
 S 1 
   1       0.0951644400      1.0000000000
 P 4 
   1      34.6972322400      0.0113272290
   2       7.9582622800      0.0761696612
   3       2.3780826900      0.3019225154
   4       0.8143320800      0.7278502776
 P 1 
   1       0.2888754700      1.0000000000
 P 1 
   1       0.1005682400      1.0000000000
 D 1 
   1       0.8000000000      1.0000000000
  end;

 # Basis set for element : O 
 NewGTO O 
 S 6 
   1   27032.3826310000      0.0005722654
   2    4052.3871392000      0.0044353333
   3     922.3272271000      0.0230201034
   4     261.2407098900      0.0928224938
   5      85.3546413500      0.2937849971
   6      31.0350352400      0.6740160462
 S 2 
   1      12.2608607300      0.6383993750
   2       4.9987076000      0.3953458663
 S 1 
   1       1.1703108200      1.0000000000
 S 1 
   1       0.4647474100      1.0000000000
 S 1 
   1       0.1850453600      1.0000000000
 P 4 
   1      63.2749548000      0.0120183316
   2      14.6270493800      0.0830054304
   3       4.4501223500      0.3199174388
   4       1.5275799600      0.7071554258
 P 1 
   1       0.5293511800      1.0000000000
 P 1 
   1       0.1747842100      1.0000000000
 D 1 
   1       1.2000000000      1.0000000000
  end;

 # Basis set for element : S 
 NewGTO S 
 S 7 
   1   60700.9281040000      0.0005238013
   2    9102.6106854000      0.0040506304
   3    2071.4166009000      0.0208270003
   4     586.0247682100      0.0814968475
   5     190.5539502100      0.2374911358
   6      67.6303842600      0.4472617145
   7      25.1273069100      0.3489191913
 S 3 
   1     112.5746301000      0.1004556993
   2      34.7955542200      0.4339117282
   3       6.5115556200     -1.2084330582
 S 2 
   1       3.2399032300      0.6749812922
   2       1.5477160900      0.3470879597
 S 1 
   1       0.4054103000      1.0000000000
 S 1 
   1       0.1455065100      1.0000000000
 P 6 
   1     564.3671602700      0.0025564845
   2     133.4262437900      0.0202874255
   3      42.4682711900      0.0927670112
   4      15.6165275800      0.2650208365
   5       6.1093988500      0.4486298663
   6       2.4404160200      0.3596369916
 P 1 
   1       0.8388220100      1.0000000000
 P 1 
   1       0.3128874700      1.0000000000
 P 1 
   1       0.1077010900      1.0000000000
 D 1 
   1       0.5500000000      1.0000000000
  end;

 # Basis set for element : V 
 NewGTO V 
 S 1 
   1  4239814.9912500000      1.0000000000
 S 1 
   1  1695925.9965000001      1.0000000000
 S 1 
   1  678370.3986000001      1.0000000000
 S 1 
   1  271348.1594400000      1.0000000000
 S 1 
   1   40672.0050780000      1.0000000000
 S 1 
   1    9257.0761385000      1.0000000000
 S 1 
   1    2622.7328773000      1.0000000000
 S 1 
   1     858.5948018500      1.0000000000
 S 1 
   1     314.1941865000      1.0000000000
 S 1 
   1     124.4786212700      1.0000000000
 S 1 
   1      50.4693993090      1.0000000000
 S 1 
   1      12.5138469110      1.0000000000
 S 1 
   1       5.3447758082      1.0000000000
 S 1 
   1       1.5755631295      1.0000000000
 S 1 
   1       0.6306903307      1.0000000000
 S 1 
   1       0.0879544416      1.0000000000
 S 1 
   1       0.0342969197      1.0000000000
 P 3 
   1    1450.0319327000     -0.0222847647
   2     343.7504988400     -0.1817959329
   3     110.8252170800     -0.8607412073
 P 3 
   1      41.8224645460     -0.2522537814
   2      17.0880737100     -0.4620379520
   3       7.2613218939     -0.3990010670
 P 1 
   1       2.9458145262      1.0000000000
 P 1 
   1       1.1650209680      1.0000000000
 P 1 
   1       0.4339937839      1.0000000000
 D 3 
   1      27.3603358640      0.0575501019
   2       7.4542765527      0.3023798347
   3       2.4632270217      0.7724212088
 D 1 
   1       0.8249954244      1.0000000000
 D 1 
   1       0.2526297057      1.0000000000
 P 1 
   1       0.1112480000      1.0000000000
 P 1 
   1       0.0363780000      1.0000000000
 F 1 
   1       1.8000000000      1.0000000000
  end;

---------------------------------
AUXILIARY/J BASIS SET INFORMATION
---------------------------------
There are 5 groups of distinct atoms

 Group   1 Type V   : 19s5p5d3f3g contracted to 8s5p5d2f3g pattern {121111111/11111/11111/21/111}
 Group   2 Type S   : 14s5p5d2f1g contracted to 8s4p3d1f1g pattern {71111111/2111/311/2/1}
 Group   3 Type O   : 12s5p4d2f1g contracted to 6s4p3d1f1g pattern {711111/2111/211/2/1}
 Group   4 Type C   : 12s5p4d2f1g contracted to 6s4p3d1f1g pattern {711111/2111/211/2/1}
 Group   5 Type H   : 5s2p1d contracted to 3s1p1d pattern {311/2/1}

Atom   0V    basis set group =>   1
Atom   1S    basis set group =>   2
Atom   2S    basis set group =>   2
Atom   3S    basis set group =>   2
Atom   4S    basis set group =>   2
Atom   5O    basis set group =>   3
Atom   6C    basis set group =>   4
Atom   7C    basis set group =>   4
Atom   8C    basis set group =>   4
Atom   9C    basis set group =>   4
Atom  10S    basis set group =>   2
Atom  11S    basis set group =>   2
Atom  12S    basis set group =>   2
Atom  13S    basis set group =>   2
Atom  14C    basis set group =>   4
Atom  15C    basis set group =>   4
Atom  16C    basis set group =>   4
Atom  17C    basis set group =>   4
Atom  18C    basis set group =>   4
Atom  19H    basis set group =>   5
Atom  20H    basis set group =>   5
Atom  21H    basis set group =>   5
Atom  22H    basis set group =>   5
Atom  23H    basis set group =>   5
Atom  24H    basis set group =>   5
Atom  25C    basis set group =>   4
Atom  26H    basis set group =>   5
Atom  27H    basis set group =>   5
Atom  28H    basis set group =>   5
Atom  29H    basis set group =>   5
Atom  30H    basis set group =>   5
Atom  31H    basis set group =>   5

-------------------------------------
AUXILIARY/J BASIS SET IN INPUT FORMAT
-------------------------------------

 # Auxiliary/J basis set for element : H 
 NewAuxJGTO H 
 S 3 
   1      15.6752927000      0.1007184237
   2       3.6063578000      0.3404257499
   3       1.2080016000      0.6491996172
 S 1 
   1       0.4726794000      1.0000000000
 S 1 
   1       0.2018100000      1.0000000000
 P 2 
   1       2.0281365000      0.5596620919
   2       0.5358730000      0.5596620919
 D 1 
   1       2.2165124000      1.0000000000
  end;

 # Auxiliary/J basis set for element : C 
 NewAuxJGTO C 
 S 7 
   1    1861.0916331000      0.0134602335
   2     642.9939764000      0.0299160374
   3     235.1105725000      0.1008649584
   4      90.7028894000      0.2370970548
   5      36.7794552000      0.3924037254
   6      15.6046273000      0.3195862154
   7       6.8907294000      0.0530104441
 S 1 
   1       3.1478850000     -1.0000000000
 S 1 
   1       1.4777287000      1.0000000000
 S 1 
   1       0.7076466000      1.0000000000
 S 1 
   1       0.3430122000      1.0000000000
 S 1 
   1       0.1669453000      1.0000000000
 P 2 
   1      13.5472892000     -0.6769313712
   2       5.4669419000     -0.3779500978
 P 1 
   1       2.1751721000      1.0000000000
 P 1 
   1       0.8582194000      1.0000000000
 P 1 
   1       0.3376720000      1.0000000000
 D 2 
   1       5.9287253000     -0.3533329857
   2       1.9809209000     -0.7456525731
 D 1 
   1       0.8055417000     -1.0000000000
 D 1 
   1       0.3531244000     -1.0000000000
 F 2 
   1       1.6755626000      0.6311076882
   2       0.5997536000      0.4968166032
 G 1 
   1       1.0024600000     -1.0000000000
  end;

 # Auxiliary/J basis set for element : O 
 NewAuxJGTO O 
 S 7 
   1    2876.8216605000      0.0168151159
   2    1004.7443032000      0.0340137548
   3     369.7579954000      0.1194951309
   4     142.9442404000      0.2664627624
   5      57.8366425000      0.4202764046
   6      24.3864983000      0.2765077335
   7      10.6622662000      0.0057008815
 S 1 
   1       4.8070437000     -1.0000000000
 S 1 
   1       2.2210770000      1.0000000000
 S 1 
   1       1.0447795000      1.0000000000
 S 1 
   1       0.4968425000      1.0000000000
 S 1 
   1       0.2371384000      1.0000000000
 P 2 
   1      64.2613382000     -0.2731534179
   2      16.3006076000     -0.8168011598
 P 1 
   1       4.3550542000      1.0000000000
 P 1 
   1       1.2019554000      1.0000000000
 P 1 
   1       0.3354196000      1.0000000000
 D 2 
   1       9.2146611000     -0.4661230638
   2       2.8435251000     -0.6600908911
 D 1 
   1       0.9955759000     -1.0000000000
 D 1 
   1       0.3649441000     -1.0000000000
 F 2 
   1       2.6420115000      0.5931563945
   2       0.7345613000      0.5931563945
 G 1 
   1       1.3931000000     -1.0000000000
  end;

 # Auxiliary/J basis set for element : S 
 NewAuxJGTO S 
 S 7 
   1    7399.0303145000      0.0295137551
   2    2710.1675859000      0.0559686311
   3    1034.3279062000      0.1764696370
   4     410.4645411000      0.3577969368
   5     168.9762502000      0.4299293578
   6      71.9687889000      0.1259148089
   7      31.6172683000     -0.0646025788
 S 1 
   1      14.2796836000      1.0000000000
 S 1 
   1       6.6060948000      1.0000000000
 S 1 
   1       3.1181477000      1.0000000000
 S 1 
   1       1.4954039000     -1.0000000000
 S 1 
   1       0.7254779000      1.0000000000
 S 1 
   1       0.3544216000      1.0000000000
 S 1 
   1       0.1735525000      1.0000000000
 P 2 
   1      12.6998799000      1.4059102813
   2       4.4295784000     -1.2124994202
 P 1 
   1       1.5232889000      1.0000000000
 P 1 
   1       0.5194667000     -1.0000000000
 P 1 
   1       0.1766547000     -1.0000000000
 D 3 
   1      16.8546461000      1.0295742104
   2       5.0810461000     -0.7461553923
   3       1.5102323000      0.8357028005
 D 1 
   1       0.4451331000      1.0000000000
 D 1 
   1       0.1308362000      1.0000000000
 F 2 
   1       1.0809860000      0.5572698934
   2       0.4161474000      0.5572698934
 G 1 
   1       0.6707100000     -1.0000000000
  end;

 # Auxiliary/J basis set for element : V 
 NewAuxJGTO V 
 S 12 
   1   11942.0842430000      0.0459866720
   2    2430.7110193000      0.1744615821
   3     841.0764301000      0.2900402792
   4     494.7508273000      0.1411212903
   5     291.0298903000      0.2660697186
   6     171.1940483000      0.0446365706
   7      59.2366916000     -0.0408204801
   8      34.8451117000      0.1394665381
   9      20.4971240000      0.2164746715
  10      12.0571314000      0.0864266611
  11       7.0924300000     -0.0568501658
  12       4.1720176000     -0.0126212852
 S 1 
   1       2.4541279000      1.0000000000
 S 1 
   1       1.4436046000      1.0000000000
 S 1 
   1       0.8491792000      1.0000000000
 S 1 
   1       0.2938336000      1.0000000000
 S 1 
   1       0.1728433000      1.0000000000
 S 1 
   1       0.1016725000      1.0000000000
 S 1 
   1       0.0598074000      1.0000000000
 P 1 
   1      16.7130979000     -1.0000000000
 P 1 
   1       4.7454037000     -1.0000000000
 P 1 
   1       1.3889998000      1.0000000000
 P 1 
   1       0.4142440000     -1.0000000000
 P 1 
   1       0.1243234000      1.0000000000
 D 1 
   1       7.7143225000      1.0000000000
 D 1 
   1       3.1170731000      1.0000000000
 D 1 
   1       1.2767950000     -1.0000000000
 D 1 
   1       0.5273386000      1.0000000000
 D 1 
   1       0.2184050000      1.0000000000
 F 2 
   1       3.1309344000     -1.0825667766
   2       1.0419780000      0.1809223232
 F 1 
   1       0.3559044000      1.0000000000
 G 1 
   1       8.7130110000      1.0000000000
 G 1 
   1       2.7493872000      1.0000000000
 G 1 
   1       0.8775089000      1.0000000000
  end;



           ************************************************************
           *        Program running with 4 parallel MPI-processes     *
           *              working on a common directory               *
           ************************************************************
------------------------------------------------------------------------------
                           ORCA GTO INTEGRAL CALCULATION
                           -- RI-GTO INTEGRALS CHOSEN --
------------------------------------------------------------------------------
------------------------------------------------------------------------------
                   ___                                                        
                  /   \      - P O W E R E D   B Y -                         
                 /     \                                                     
                 |  |  |   _    _      __       _____    __    __             
                 |  |  |  | |  | |    /  \     |  _  \  |  |  /  |          
                  \  \/   | |  | |   /    \    | | | |  |  | /  /          
                 / \  \   | |__| |  /  /\  \   | |_| |  |  |/  /          
                |  |  |   |  __  | /  /__\  \  |    /   |      \           
                |  |  |   | |  | | |   __   |  |    \   |  |\   \          
                \     /   | |  | | |  |  |  |  | |\  \  |  | \   \       
                 \___/    |_|  |_| |__|  |__|  |_| \__\ |__|  \__/        
                                                                              
                      - O R C A' S   B I G   F R I E N D -                    
                                      &                                       
                       - I N T E G R A L  F E E D E R -                       
                                                                              
 v1 FN, 2020, v2 2021                                                         
------------------------------------------------------------------------------


Reading SHARK input file input_56.SHARKINP.tmp ... ok
----------------------
SHARK INTEGRAL PACKAGE
----------------------

Number of atoms                             ...     32
Number of basis functions                   ...    517
Number of shells                            ...    255
Maximum angular momentum                    ...      3
Integral batch strategy                     ... SHARK/LIBINT Hybrid
RI-J (if used) integral strategy            ... SPLIT-RIJ (Revised 2003 algorithm where possible)
Printlevel                                  ...      1
Contraction scheme used                     ... SEGMENTED contraction
Coulomb Range Separation                    ... NOT USED
Exchange Range Separation                   ... NOT USED
Finite Nucleus Model                        ... NOT USED
Auxiliary Coulomb fitting basis             ... AVAILABLE
   # of basis functions in Aux-J            ...   1168
   # of shells in Aux-J                     ...    384
   Maximum angular momentum in Aux-J        ...      4
Auxiliary J/K fitting basis                 ... NOT available
Auxiliary Correlation fitting basis         ... NOT available
Auxiliary 'external' fitting basis          ... NOT available
Integral threshold                          ...     1.000000e-10
Primitive cut-off                           ...     1.000000e-11
Primitive pair pre-selection threshold      ...     1.000000e-11

Calculating pre-screening integrals         ... done (  0.1 sec) Dimension = 255
Organizing shell pair data                  ... done (  0.1 sec)
Shell pair information
Total number of shell pairs                 ...     32640
Shell pairs after pre-screening             ...     17817
Total number of primitive shell pairs       ...    123863
Primitive shell pairs kept                  ...     41652
          la=0 lb=0:   5379 shell pairs
          la=1 lb=0:   7058 shell pairs
          la=1 lb=1:   2298 shell pairs
          la=2 lb=0:   1675 shell pairs
          la=2 lb=1:   1116 shell pairs
          la=2 lb=2:    154 shell pairs
          la=3 lb=0:     72 shell pairs
          la=3 lb=1:     52 shell pairs
          la=3 lb=2:     12 shell pairs
          la=3 lb=3:      1 shell pairs

Calculating one electron integrals          ... done (  0.0 sec)
Calculating RI/J V-Matrix + Cholesky decomp.... done (  0.1 sec)
Calculating Nuclear repulsion               ... done (  0.0 sec) ENN=   3212.640273088606 Eh

SHARK setup successfully completed in   0.6 seconds

Maximum memory used throughout the entire GTOINT-calculation: 31.9 MB


           ************************************************************
           *        Program running with 4 parallel MPI-processes     *
           *              working on a common directory               *
           ************************************************************
-------------------------------------------------------------------------------
                                 ORCA SCF
-------------------------------------------------------------------------------

------------
SCF SETTINGS
------------
Hamiltonian:
 Density Functional     Method          .... DFT(GTOs)
 Exchange Functional    Exchange        .... B88
   X-Alpha parameter    XAlpha          ....  0.666667
   Becke's b parameter  XBeta           ....  0.004200
 Correlation Functional Correlation     .... LYP
 LDA part of GGA corr.  LDAOpt          .... VWN-5
 Gradients option       PostSCFGGA      .... off
 Hybrid DFT is turned on
   Fraction HF Exchange ScalHFX         ....  0.200000
   Scaling of DF-GGA-X  ScalDFX         ....  0.720000
   Scaling of DF-GGA-C  ScalDFC         ....  0.810000
   Scaling of DF-LDA-C  ScalLDAC        ....  1.000000
   Perturbative correction              ....  0.000000
   Density functional embedding theory  .... OFF
   NL short-range parameter             ....  4.800000
 RI-approximation to the Coulomb term is turned on
   Number of AuxJ basis functions       .... 1168
   RIJ-COSX (HFX calculated with COS-X)).... on


General Settings:
 Integral files         IntName         .... input_56
 Hartree-Fock type      HFTyp           .... UHF
 Total Charge           Charge          ....   -2
 Multiplicity           Mult            ....    2
 Number of Electrons    NEL             ....  233
 Basis Dimension        Dim             ....  517
 Nuclear Repulsion      ENuc            ....   3212.6402730886 Eh

Convergence Acceleration:
 DIIS                   CNVDIIS         .... on
   Start iteration      DIISMaxIt       ....    12
   Startup error        DIISStart       ....  0.200000
   # of expansion vecs  DIISMaxEq       ....     5
   Bias factor          DIISBfac        ....   1.050
   Max. coefficient     DIISMaxC        ....  10.000
 Trust-Rad. Augm. Hess. CNVTRAH         .... auto
   Auto Start mean grad. ratio tolernc. ....  1.125000
   Auto Start start iteration           ....    20
   Auto Start num. interpolation iter.  ....    10
   Max. Number of Micro iterations      ....    16
   Max. Number of Macro iterations      .... Maxiter - #DIIS iter
   Number of Davidson start vectors     ....     2
   Converg. threshold I  (grad. norm)   ....   5.000e-05
   Converg. threshold II (energy diff.) ....   1.000e-06
   Grad. Scal. Fac. for Micro threshold ....   0.100
   Minimum threshold for Micro iter.    ....   0.010
   NR start threshold (gradient norm)   ....   0.001
   Initial trust radius                 ....   0.400
   Minimum AH scaling param. (alpha)    ....   1.000
   Maximum AH scaling param. (alpha)    .... 1000.000
   Orbital update algorithm             .... Taylor
   White noise on init. David. guess    .... on
   Maximum white noise                  ....   0.010
   Quad. conv. algorithm                .... NR
 SOSCF                  CNVSOSCF        .... off
 Level Shifting         CNVShift        .... on
   Level shift para.    LevelShift      ....    0.2500
   Turn off err/grad.   ShiftErr        ....    0.0010
 Zerner damping         CNVZerner       .... off
 Static damping         CNVDamp         .... on
   Fraction old density DampFac         ....    0.7000
   Max. Damping (<1)    DampMax         ....    0.9800
   Min. Damping (>=0)   DampMin         ....    0.0000
   Turn off err/grad.   DampErr         ....    0.1000
 Fernandez-Rico         CNVRico         .... off

SCF Procedure:
 Maximum # iterations   MaxIter         ....   125
 SCF integral mode      SCFMode         .... Direct
   Integral package                     .... SHARK and LIBINT hybrid scheme
 Reset frequency        DirectResetFreq ....    20
 Integral Threshold     Thresh          ....  1.000e-10 Eh
 Primitive CutOff       TCut            ....  1.000e-11 Eh

Convergence Tolerance:
 Convergence Check Mode ConvCheckMode   .... Total+1el-Energy
 Convergence forced     ConvForced      .... 0
 Energy Change          TolE            ....  1.000e-06 Eh
 1-El. energy change                    ....  1.000e-03 Eh
 DIIS Error             TolErr          ....  1.000e-06


Diagonalization of the overlap matrix:
Smallest eigenvalue                        ... 1.795e-04
Time for diagonalization                   ...    0.085 sec
Threshold for overlap eigenvalues          ... 1.000e-08
Number of eigenvalues below threshold      ... 0
Time for construction of square roots      ...    0.071 sec
Total time needed                          ...    0.158 sec

Time for model grid setup =    0.356 sec

------------------------------
INITIAL GUESS: MODEL POTENTIAL
------------------------------
Loading Hartree-Fock densities                     ... done
Calculating cut-offs                               ... done
Initializing the effective Hamiltonian             ... done
Setting up the integral package (SHARK)            ... done
Starting the Coulomb interaction                   ... done (   0.4 sec)
Reading the grid                                   ... done
Mapping shells                                     ... done
Starting the XC term evaluation                    ... done (   0.2 sec)
  promolecular density results
     # of electrons  =    230.995231718
     EX              =   -307.578537931
     EC              =     -9.028513731
     EX+EC           =   -316.607051662
Transforming the Hamiltonian                       ... done (   0.1 sec)
Diagonalizing the Hamiltonian                      ... done (   0.1 sec)
Back transforming the eigenvectors                 ... done (   0.0 sec)
Now organizing SCF variables                       ... done
                      ------------------
                      INITIAL GUESS DONE (   1.2 sec)
                      ------------------
-------------------
DFT GRID GENERATION
-------------------

General Integration Accuracy     IntAcc      ... 4.388
Radial Grid Type                 RadialGrid  ... OptM3 with GC (2021)
Angular Grid (max. ang.)         AngularGrid ... 4 (Lebedev-302)
Angular grid pruning method      GridPruning ... 4 (adaptive)
Weight generation scheme         WeightScheme... Becke
Basis function cutoff            BFCut       ... 1.0000e-10
Integration weight cutoff        WCut        ... 1.0000e-14
Angular grids for H and He will be reduced by one unit
Partially contracted basis set               ... off
Rotationally invariant grid construction     ... off

Total number of grid points                  ...   184041
Total number of batches                      ...     2888
Average number of points per batch           ...       63
Average number of grid points per atom       ...     5751
Time for grid setup =    1.603 sec

--------------------
COSX GRID GENERATION
--------------------

GRIDX 1
-------
General Integration Accuracy     IntAcc      ... 3.816
Radial Grid Type                 RadialGrid  ... OptM3 with GC (2021)
Angular Grid (max. ang.)         AngularGrid ... 1 (Lebedev-50)
Angular grid pruning method      GridPruning ... 4 (adaptive)
Weight generation scheme         WeightScheme... Becke
Basis function cutoff            BFCut       ... 1.0000e-10
Integration weight cutoff        WCut        ... 1.0000e-14
Angular grids for H and He will be reduced by one unit
Partially contracted basis set               ... on
Rotationally invariant grid construction     ... off

Total number of grid points                  ...    22815
Total number of batches                      ...      374
Average number of points per batch           ...       61
Average number of grid points per atom       ...      713
UseSFitting                                  ... on

GRIDX 2
-------
General Integration Accuracy     IntAcc      ... 4.020
Radial Grid Type                 RadialGrid  ... OptM3 with GC (2021)
Angular Grid (max. ang.)         AngularGrid ... 2 (Lebedev-110)
Angular grid pruning method      GridPruning ... 4 (adaptive)
Weight generation scheme         WeightScheme... Becke
Basis function cutoff            BFCut       ... 1.0000e-10
Integration weight cutoff        WCut        ... 1.0000e-14
Angular grids for H and He will be reduced by one unit
Partially contracted basis set               ... on
Rotationally invariant grid construction     ... off

Total number of grid points                  ...    49126
Total number of batches                      ...      785
Average number of points per batch           ...       62
Average number of grid points per atom       ...     1535
UseSFitting                                  ... on

GRIDX 3
-------
General Integration Accuracy     IntAcc      ... 4.338
Radial Grid Type                 RadialGrid  ... OptM3 with GC (2021)
Angular Grid (max. ang.)         AngularGrid ... 3 (Lebedev-194)
Angular grid pruning method      GridPruning ... 4 (adaptive)
Weight generation scheme         WeightScheme... Becke
Basis function cutoff            BFCut       ... 1.0000e-10
Integration weight cutoff        WCut        ... 1.0000e-14
Angular grids for H and He will be reduced by one unit
Partially contracted basis set               ... on
Rotationally invariant grid construction     ... off

Total number of grid points                  ...   112057
Total number of batches                      ...     1769
Average number of points per batch           ...       63
Average number of grid points per atom       ...     3502
UseSFitting                                  ... on

Time for X-Grid setup             =    1.801 sec

--------------
SCF ITERATIONS
--------------
ITER       Energy         Delta-E        Max-DP      RMS-DP      [F,P]     Damp
               ***  Starting incremental Fock matrix formation  ***
  0  -4591.9072990704   0.000000000000 0.07818330  0.00092860  0.2357802 0.7000
  1  -4592.2072061116  -0.299907041201 0.12204504  0.00093943  0.1560076 0.7000
                               ***Turning on DIIS***
  2  -4592.3580550795  -0.150848967835 0.08649350  0.00059766  0.1091633 0.7000
  3  -4592.4412050582  -0.083149978733 0.11500701  0.00093293  0.0772157 0.0000
  4  -4592.6385804184  -0.197375360253 0.07634779  0.00051683  0.0144406 0.0000
  5  -4592.6440948876  -0.005514469193 0.01334543  0.00010888  0.0118981 0.0000
  6  -4592.6452678860  -0.001172998318 0.00242299  0.00004506  0.0033489 0.0000
  7  -4592.6454727891  -0.000204903127 0.00159546  0.00002212  0.0013928 0.0000
  8  -4592.6455387966  -0.000066007535 0.00122156  0.00001588  0.0012431 0.0000
  9  -4592.6455747983  -0.000036001666 0.00231424  0.00002240  0.0008789 0.0000
               *** Restarting incremental Fock matrix formation ***
                                   *** Resetting DIIS ***
 10  -4592.6455533119   0.000021486425 0.00105141  0.00001422  0.0007863 0.0000
 11  -4592.6455277300   0.000025581876 0.00032067  0.00000381  0.0023755 0.0000
 12  -4592.6455593386  -0.000031608656 0.00049693  0.00000596  0.0009437 0.0000
 13  -4592.6455660817  -0.000006743090 0.00042755  0.00000402  0.0003009 0.0000
 14  -4592.6455687783  -0.000002696547 0.00030133  0.00000261  0.0001722 0.0000
 15  -4592.6455694096  -0.000000631338 0.00017458  0.00000168  0.0001293 0.0000
 16  -4592.6455695368  -0.000000127138 0.00019213  0.00000146  0.0001013 0.0000
                 **** Energy Check signals convergence ****

               *****************************************************
               *                     SUCCESS                       *
               *           SCF CONVERGED AFTER  17 CYCLES          *
               *****************************************************

Old exchange energy                            =    -61.768824930 Eh
New exchange energy                            =    -61.768870998 Eh
Exchange energy change after final integration =     -0.000046068 Eh
Total energy after final integration           =  -4592.645615806 Eh
Final COS-X integration done in                =    24.908 sec

----------------
TOTAL SCF ENERGY
----------------

Total Energy       :        -4592.64561581 Eh         -124972.24067 eV

Components:
Nuclear Repulsion  :         3212.64027309 Eh           87420.38620 eV
Electronic Energy  :        -7805.28588889 Eh         -212392.62687 eV
One Electron Energy:       -12788.81389826 Eh         -348001.31822 eV
Two Electron Energy:         4983.52800936 Eh          135608.69135 eV
Max COSX asymmetry :            0.00000463 Eh               0.00013 eV

Virial components:
Potential Energy   :        -9174.06331832 Eh         -249638.95429 eV
Kinetic Energy     :         4581.41770252 Eh          124666.71362 eV
Virial Ratio       :            2.00245075


DFT components:
N(Alpha)           :      116.999997804392 electrons
N(Beta)            :      115.999995500580 electrons
N(Total)           :      232.999993304973 electrons
E(X)               :     -245.522035769954 Eh       
E(C)               :      -10.626717664324 Eh       
E(XC)              :     -256.148753434278 Eh       
DFET-embed. en.    :        0.000000000000 Eh       

---------------
SCF CONVERGENCE
---------------

  Last Energy change         ...   -2.0146e-07  Tolerance :   1.0000e-06
  Last MAX-Density change    ...    0.0000e+00  Tolerance :   1.0000e-05
  Last RMS-Density change    ...    0.0000e+00  Tolerance :   1.0000e-06
  Last DIIS Error            ...    2.2670e-05  Tolerance :   1.0000e-06

             **** THE GBW FILE WAS UPDATED (input_56.gbw) ****
             **** DENSITY input_56.scfp WAS UPDATED ****
             **** ENERGY FILE WAS UPDATED (input_56.en.tmp) ****
----------------------
UHF SPIN CONTAMINATION
----------------------

Warning: in a DFT calculation there is little theoretical justification to 
         calculate <S**2> as in Hartree-Fock theory. We will do it anyways
         but you should keep in mind that the values have only limited relevance

Expectation value of <S**2>     :     0.764839
Ideal value S*(S+1) for S=0.5   :     0.750000
Deviation                       :     0.014839

             **** THE GBW FILE WAS UPDATED (input_56.gbw) ****
             **** DENSITY input_56.scfp WAS UPDATED ****
----------------
ORBITAL ENERGIES
----------------
                 SPIN UP ORBITALS
  NO   OCC          E(Eh)            E(eV) 
   0   1.0000    -196.640099     -5350.8491 
   1   1.0000     -88.676834     -2413.0193 
   2   1.0000     -88.676376     -2413.0069 
   3   1.0000     -88.676368     -2413.0066 
   4   1.0000     -88.675754     -2412.9899 
   5   1.0000     -88.612237     -2411.2615 
   6   1.0000     -88.611954     -2411.2539 
   7   1.0000     -88.611813     -2411.2500 
   8   1.0000     -88.611715     -2411.2473 
   9   1.0000     -22.015904      -599.0832 
  10   1.0000     -18.857170      -513.1297 
  11   1.0000     -18.522728      -504.0291 
  12   1.0000     -18.516954      -503.8719 
  13   1.0000     -18.516916      -503.8709 
  14   1.0000     -10.025879      -272.8180 
  15   1.0000     -10.015355      -272.5317 
  16   1.0000     -10.015126      -272.5254 
  17   1.0000     -10.004536      -272.2373 
  18   1.0000     -10.003775      -272.2166 
  19   1.0000     -10.002441      -272.1802 
  20   1.0000      -9.992716      -271.9156 
  21   1.0000      -9.991730      -271.8888 
  22   1.0000      -9.991019      -271.8694 
  23   1.0000      -9.990280      -271.8493 
  24   1.0000      -7.731463      -210.3838 
  25   1.0000      -7.730040      -210.3451 
  26   1.0000      -7.730028      -210.3448 
  27   1.0000      -7.728741      -210.3097 
  28   1.0000      -7.666721      -208.6221 
  29   1.0000      -7.666372      -208.6126 
  30   1.0000      -7.666257      -208.6095 
  31   1.0000      -7.666131      -208.6060 
  32   1.0000      -5.696559      -155.0112 
  33   1.0000      -5.695288      -154.9767 
  34   1.0000      -5.695269      -154.9762 
  35   1.0000      -5.693913      -154.9393 
  36   1.0000      -5.692578      -154.9029 
  37   1.0000      -5.691386      -154.8705 
  38   1.0000      -5.691383      -154.8704 
  39   1.0000      -5.690304      -154.8410 
  40   1.0000      -5.686384      -154.7344 
  41   1.0000      -5.684788      -154.6909 
  42   1.0000      -5.684781      -154.6908 
  43   1.0000      -5.683502      -154.6560 
  44   1.0000      -5.631548      -153.2422 
  45   1.0000      -5.631215      -153.2332 
  46   1.0000      -5.631099      -153.2300 
  47   1.0000      -5.630980      -153.2268 
  48   1.0000      -5.625138      -153.0678 
  49   1.0000      -5.624822      -153.0592 
  50   1.0000      -5.624712      -153.0562 
  51   1.0000      -5.624684      -153.0554 
  52   1.0000      -5.624570      -153.0523 
  53   1.0000      -5.624353      -153.0464 
  54   1.0000      -5.624241      -153.0434 
  55   1.0000      -5.624104      -153.0396 
  56   1.0000      -2.409587       -65.5682 
  57   1.0000      -1.450946       -39.4822 
  58   1.0000      -1.439369       -39.1672 
  59   1.0000      -1.438292       -39.1379 
  60   1.0000      -0.667413       -18.1612 
  61   1.0000      -0.643728       -17.5167 
  62   1.0000      -0.618269       -16.8240 
  63   1.0000      -0.611469       -16.6389 
  64   1.0000      -0.593517       -16.1504 
  65   1.0000      -0.575800       -15.6683 
  66   1.0000      -0.572588       -15.5809 
  67   1.0000      -0.503324       -13.6961 
  68   1.0000      -0.490541       -13.3483 
  69   1.0000      -0.486907       -13.2494 
  70   1.0000      -0.469516       -12.7762 
  71   1.0000      -0.422434       -11.4950 
  72   1.0000      -0.419824       -11.4240 
  73   1.0000      -0.410326       -11.1655 
  74   1.0000      -0.400065       -10.8863 
  75   1.0000      -0.375760       -10.2250 
  76   1.0000      -0.372904       -10.1472 
  77   1.0000      -0.305482        -8.3126 
  78   1.0000      -0.292704        -7.9649 
  79   1.0000      -0.290503        -7.9050 
  80   1.0000      -0.277577        -7.5533 
  81   1.0000      -0.259763        -7.0685 
  82   1.0000      -0.255525        -6.9532 
  83   1.0000      -0.243316        -6.6210 
  84   1.0000      -0.239786        -6.5249 
  85   1.0000      -0.215975        -5.8770 
  86   1.0000      -0.194786        -5.3004 
  87   1.0000      -0.192339        -5.2338 
  88   1.0000      -0.190924        -5.1953 
  89   1.0000      -0.184486        -5.0201 
  90   1.0000      -0.181316        -4.9339 
  91   1.0000      -0.156838        -4.2678 
  92   1.0000      -0.148987        -4.0541 
  93   1.0000      -0.147749        -4.0205 
  94   1.0000      -0.143402        -3.9022 
  95   1.0000      -0.142145        -3.8680 
  96   1.0000      -0.134297        -3.6544 
  97   1.0000      -0.097368        -2.6495 
  98   1.0000      -0.095803        -2.6069 
  99   1.0000      -0.088548        -2.4095 
 100   1.0000      -0.083355        -2.2682 
 101   1.0000      -0.080179        -2.1818 
 102   1.0000      -0.078935        -2.1479 
 103   1.0000      -0.068672        -1.8687 
 104   1.0000      -0.050131        -1.3641 
 105   1.0000      -0.038464        -1.0467 
 106   1.0000      -0.037877        -1.0307 
 107   1.0000      -0.035567        -0.9678 
 108   1.0000      -0.031486        -0.8568 
 109   1.0000      -0.012965        -0.3528 
 110   1.0000      -0.004150        -0.1129 
 111   1.0000      -0.003005        -0.0818 
 112   1.0000       0.006298         0.1714 
 113   1.0000       0.010722         0.2918 
 114   1.0000       0.016303         0.4436 
 115   1.0000       0.033684         0.9166 
 116   1.0000       0.059838         1.6283 
 117   0.0000       0.187304         5.0968 
 118   0.0000       0.191432         5.2091 
 119   0.0000       0.194867         5.3026 
 120   0.0000       0.196555         5.3485 
 121   0.0000       0.211434         5.7534 
 122   0.0000       0.212835         5.7915 
 123   0.0000       0.217342         5.9142 
 124   0.0000       0.220930         6.0118 
 125   0.0000       0.226278         6.1573 
 126   0.0000       0.233754         6.3608 
 127   0.0000       0.239094         6.5061 
 128   0.0000       0.242733         6.6051 
 129   0.0000       0.243576         6.6280 
 130   0.0000       0.246654         6.7118 
 131   0.0000       0.247085         6.7235 
 132   0.0000       0.251194         6.8353 
 133   0.0000       0.253190         6.8897 
 134   0.0000       0.254940         6.9373 
 135   0.0000       0.259929         7.0730 
 136   0.0000       0.270507         7.3609 
 137   0.0000       0.274013         7.4563 
 138   0.0000       0.276986         7.5372 
 139   0.0000       0.281445         7.6585 
 140   0.0000       0.284113         7.7311 
 141   0.0000       0.285088         7.7576 
 142   0.0000       0.285409         7.7664 
 143   0.0000       0.291490         7.9318 
 144   0.0000       0.297802         8.1036 
 145   0.0000       0.309522         8.4225 
 146   0.0000       0.310012         8.4359 
 147   0.0000       0.319513         8.6944 
 148   0.0000       0.324643         8.8340 
 149   0.0000       0.327357         8.9078 
 150   0.0000       0.348176         9.4744 
 151   0.0000       0.358401         9.7526 
 152   0.0000       0.364463         9.9176 
 153   0.0000       0.375054        10.2057 
 154   0.0000       0.379910        10.3379 
 155   0.0000       0.395259        10.7555 
 156   0.0000       0.395853        10.7717 
 157   0.0000       0.399740        10.8775 
 158   0.0000       0.405888        11.0448 
 159   0.0000       0.415574        11.3083 
 160   0.0000       0.416359        11.3297 
 161   0.0000       0.426536        11.6066 
 162   0.0000       0.428124        11.6498 
 163   0.0000       0.432699        11.7743 
 164   0.0000       0.449324        12.2267 
 165   0.0000       0.453320        12.3355 
 166   0.0000       0.455582        12.3970 
 167   0.0000       0.457076        12.4377 
 168   0.0000       0.458761        12.4835 
 169   0.0000       0.464358        12.6358 
 170   0.0000       0.474055        12.8997 
 171   0.0000       0.475893        12.9497 
 172   0.0000       0.481533        13.1032 
 173   0.0000       0.484667        13.1884 
 174   0.0000       0.490988        13.3605 
 175   0.0000       0.495609        13.4862 
 176   0.0000       0.497734        13.5440 
 177   0.0000       0.499857        13.6018 
 178   0.0000       0.504156        13.7188 
 179   0.0000       0.510977        13.9044 
 180   0.0000       0.512534        13.9467 
 181   0.0000       0.517825        14.0907 
 182   0.0000       0.521397        14.1879 
 183   0.0000       0.523695        14.2505 
 184   0.0000       0.532835        14.4992 
 185   0.0000       0.536792        14.6068 
 186   0.0000       0.550392        14.9769 
 187   0.0000       0.552591        15.0368 
 188   0.0000       0.554448        15.0873 
 189   0.0000       0.555299        15.1105 
 190   0.0000       0.556123        15.1329 
 191   0.0000       0.566762        15.4224 
 192   0.0000       0.571046        15.5390 
 193   0.0000       0.575644        15.6641 
 194   0.0000       0.575801        15.6683 
 195   0.0000       0.578225        15.7343 
 196   0.0000       0.581964        15.8360 
 197   0.0000       0.585096        15.9213 
 198   0.0000       0.586558        15.9611 
 199   0.0000       0.591856        16.1052 
 200   0.0000       0.594255        16.1705 
 201   0.0000       0.596218        16.2239 
 202   0.0000       0.603702        16.4276 
 203   0.0000       0.607859        16.5407 
 204   0.0000       0.614379        16.7181 
 205   0.0000       0.615596        16.7512 
 206   0.0000       0.618857        16.8400 
 207   0.0000       0.626531        17.0488 
 208   0.0000       0.630180        17.1481 
 209   0.0000       0.631601        17.1867 
 210   0.0000       0.635121        17.2825 
 211   0.0000       0.644950        17.5500 
 212   0.0000       0.650117        17.6906 
 213   0.0000       0.651409        17.7258 
 214   0.0000       0.652625        17.7588 
 215   0.0000       0.659471        17.9451 
 216   0.0000       0.660714        17.9790 
 217   0.0000       0.668545        18.1920 
 218   0.0000       0.673217        18.3192 
 219   0.0000       0.676875        18.4187 
 220   0.0000       0.682431        18.5699 
 221   0.0000       0.690910        18.8006 
 222   0.0000       0.704264        19.1640 
 223   0.0000       0.715976        19.4827 
 224   0.0000       0.722460        19.6591 
 225   0.0000       0.733455        19.9583 
 226   0.0000       0.739161        20.1136 
 227   0.0000       0.748529        20.3685 
 228   0.0000       0.752692        20.4818 
 229   0.0000       0.754858        20.5407 
 230   0.0000       0.773301        21.0426 
 231   0.0000       0.777923        21.1683 
 232   0.0000       0.798424        21.7262 
 233   0.0000       0.801429        21.8080 
 234   0.0000       0.817228        22.2379 
 235   0.0000       0.839244        22.8370 
 236   0.0000       0.860862        23.4252 
 237   0.0000       0.867907        23.6170 
 238   0.0000       0.873527        23.7699 
 239   0.0000       0.885670        24.1003 
 240   0.0000       0.889455        24.2033 
 241   0.0000       0.903867        24.5955 
 242   0.0000       0.912287        24.8246 
 243   0.0000       0.913947        24.8698 
 244   0.0000       0.914905        24.8958 
 245   0.0000       0.921170        25.0663 
 246   0.0000       0.929942        25.3050 
 247   0.0000       0.948385        25.8069 
 248   0.0000       0.960614        26.1396 
 249   0.0000       0.972204        26.4550 
 250   0.0000       0.978902        26.6373 
 251   0.0000       0.982930        26.7469 
 252   0.0000       0.985765        26.8240 
 253   0.0000       0.987824        26.8801 
 254   0.0000       0.997708        27.1490 
 255   0.0000       1.001798        27.2603 
 256   0.0000       1.005026        27.3481 
 257   0.0000       1.020534        27.7702 
 258   0.0000       1.029665        28.0186 
 259   0.0000       1.030455        28.0401 
 260   0.0000       1.056873        28.7590 
 261   0.0000       1.057402        28.7734 
 262   0.0000       1.058613        28.8063 
 263   0.0000       1.060880        28.8680 
 264   0.0000       1.078323        29.3426 
 265   0.0000       1.090762        29.6811 
 266   0.0000       1.101006        29.9599 
 267   0.0000       1.118264        30.4295 
 268   0.0000       1.119942        30.4752 
 269   0.0000       1.124078        30.5877 
 270   0.0000       1.124612        30.6023 
 271   0.0000       1.132612        30.8199 
 272   0.0000       1.135992        30.9119 
 273   0.0000       1.136359        30.9219 
 274   0.0000       1.138746        30.9868 
 275   0.0000       1.150515        31.3071 
 276   0.0000       1.155979        31.4558 
 277   0.0000       1.163083        31.6491 
 278   0.0000       1.177198        32.0332 
 279   0.0000       1.193334        32.4723 
 280   0.0000       1.200513        32.6676 
 281   0.0000       1.238498        33.7012 
 282   0.0000       1.239665        33.7330 
 283   0.0000       1.273439        34.6520 
 284   0.0000       1.275467        34.7072 
 285   0.0000       1.287850        35.0442 
 286   0.0000       1.299518        35.3617 
 287   0.0000       1.305995        35.5379 
 288   0.0000       1.315709        35.8023 
 289   0.0000       1.352495        36.8033 
 290   0.0000       1.357478        36.9389 
 291   0.0000       1.370122        37.2829 
 292   0.0000       1.380941        37.5773 
 293   0.0000       1.394133        37.9363 
 294   0.0000       1.415395        38.5148 
 295   0.0000       1.419306        38.6213 
 296   0.0000       1.423574        38.7374 
 297   0.0000       1.437404        39.1138 
 298   0.0000       1.441369        39.2216 
 299   0.0000       1.449600        39.4456 
 300   0.0000       1.464140        39.8413 
 301   0.0000       1.469853        39.9967 
 302   0.0000       1.484544        40.3965 
 303   0.0000       1.489006        40.5179 
 304   0.0000       1.489979        40.5444 
 305   0.0000       1.500009        40.8173 
 306   0.0000       1.520399        41.3722 
 307   0.0000       1.529346        41.6156 
 308   0.0000       1.550250        42.1845 
 309   0.0000       1.561161        42.4813 
 310   0.0000       1.565717        42.6053 
 311   0.0000       1.573059        42.8051 
 312   0.0000       1.604413        43.6583 
 313   0.0000       1.612382        43.8751 
 314   0.0000       1.617589        44.0168 
 315   0.0000       1.620438        44.0944 
 316   0.0000       1.636742        44.5380 
 317   0.0000       1.659088        45.1461 
 318   0.0000       1.668720        45.4082 
 319   0.0000       1.670736        45.4630 
 320   0.0000       1.673853        45.5479 
 321   0.0000       1.674955        45.5778 
 322   0.0000       1.683692        45.8156 
 323   0.0000       1.695912        46.1481 
 324   0.0000       1.704815        46.3904 
 325   0.0000       1.710876        46.5553 
 326   0.0000       1.722986        46.8848 
 327   0.0000       1.737007        47.2664 
 328   0.0000       1.743529        47.4438 
 329   0.0000       1.752095        47.6769 
 330   0.0000       1.761473        47.9321 
 331   0.0000       1.772136        48.2223 
 332   0.0000       1.776530        48.3419 
 333   0.0000       1.785533        48.5868 
 334   0.0000       1.795769        48.8653 
 335   0.0000       1.799345        48.9627 
 336   0.0000       1.804121        49.0926 
 337   0.0000       1.815681        49.4072 
 338   0.0000       1.833292        49.8864 
 339   0.0000       1.840240        50.0755 
 340   0.0000       1.844004        50.1779 
 341   0.0000       1.847072        50.2614 
 342   0.0000       1.851622        50.3852 
 343   0.0000       1.857073        50.5335 
 344   0.0000       1.868136        50.8346 
 345   0.0000       1.870813        50.9074 
 346   0.0000       1.883268        51.2463 
 347   0.0000       1.890098        51.4322 
 348   0.0000       1.919305        52.2270 
 349   0.0000       1.929651        52.5085 
 350   0.0000       1.931131        52.5487 
 351   0.0000       1.936220        52.6872 
 352   0.0000       1.944710        52.9182 
 353   0.0000       1.953010        53.1441 
 354   0.0000       1.954796        53.1927 
 355   0.0000       1.962254        53.3956 
 356   0.0000       1.969374        53.5894 
 357   0.0000       1.977359        53.8067 
 358   0.0000       2.006478        54.5990 
 359   0.0000       2.013358        54.7862 
 360   0.0000       2.042422        55.5771 
 361   0.0000       2.055011        55.9197 
 362   0.0000       2.069065        56.3021 
 363   0.0000       2.074382        56.4468 
 364   0.0000       2.076811        56.5129 
 365   0.0000       2.092900        56.9507 
 366   0.0000       2.112796        57.4921 
 367   0.0000       2.126244        57.8580 
 368   0.0000       2.129466        57.9457 
 369   0.0000       2.152791        58.5804 
 370   0.0000       2.161643        58.8213 
 371   0.0000       2.167240        58.9736 
 372   0.0000       2.177766        59.2600 
 373   0.0000       2.193559        59.6898 
 374   0.0000       2.194969        59.7281 
 375   0.0000       2.196060        59.7578 
 376   0.0000       2.208400        60.0936 
 377   0.0000       2.213403        60.2298 
 378   0.0000       2.222644        60.4812 
 379   0.0000       2.228525        60.6413 
 380   0.0000       2.235436        60.8293 
 381   0.0000       2.238355        60.9087 
 382   0.0000       2.246748        61.1371 
 383   0.0000       2.266339        61.6702 
 384   0.0000       2.274215        61.8845 
 385   0.0000       2.286700        62.2243 
 386   0.0000       2.288867        62.2832 
 387   0.0000       2.295457        62.4626 
 388   0.0000       2.309214        62.8369 
 389   0.0000       2.314803        62.9890 
 390   0.0000       2.319828        63.1257 
 391   0.0000       2.329815        63.3975 
 392   0.0000       2.356993        64.1370 
 393   0.0000       2.362456        64.2857 
 394   0.0000       2.387825        64.9760 
 395   0.0000       2.403415        65.4002 
 396   0.0000       2.405678        65.4618 
 397   0.0000       2.411601        65.6230 
 398   0.0000       2.413054        65.6625 
 399   0.0000       2.419254        65.8312 
 400   0.0000       2.446962        66.5852 
 401   0.0000       2.458234        66.8919 
 402   0.0000       2.471773        67.2604 
 403   0.0000       2.511944        68.3535 
 404   0.0000       2.519944        68.5712 
 405   0.0000       2.524634        68.6988 
 406   0.0000       2.534274        68.9611 
 407   0.0000       2.544427        69.2374 
 408   0.0000       2.552063        69.4452 
 409   0.0000       2.553295        69.4787 
 410   0.0000       2.561853        69.7116 
 411   0.0000       2.571368        69.9705 
 412   0.0000       2.597325        70.6768 
 413   0.0000       2.605414        70.8969 
 414   0.0000       2.615743        71.1780 
 415   0.0000       2.616491        71.1983 
 416   0.0000       2.619278        71.2742 
 417   0.0000       2.635237        71.7084 
 418   0.0000       2.642857        71.9158 
 419   0.0000       2.656648        72.2911 
 420   0.0000       2.672579        72.7246 
 421   0.0000       2.680341        72.9358 
 422   0.0000       2.700956        73.4967 
 423   0.0000       2.755237        74.9738 
 424   0.0000       2.763441        75.1971 
 425   0.0000       2.772482        75.4431 
 426   0.0000       2.781385        75.6853 
 427   0.0000       2.799924        76.1898 
 428   0.0000       2.823388        76.8283 
 429   0.0000       2.832303        77.0709 
 430   0.0000       2.848643        77.5155 
 431   0.0000       2.857141        77.7468 
 432   0.0000       2.861823        77.8742 
 433   0.0000       2.864034        77.9343 
 434   0.0000       2.890060        78.6425 
 435   0.0000       2.899641        78.9033 
 436   0.0000       2.911119        79.2156 
 437   0.0000       2.911886        79.2364 
 438   0.0000       2.919946        79.4558 
 439   0.0000       2.921586        79.5004 
 440   0.0000       2.926896        79.6449 
 441   0.0000       2.949935        80.2718 
 442   0.0000       2.959223        80.5246 
 443   0.0000       2.968821        80.7857 
 444   0.0000       3.006204        81.8030 
 445   0.0000       3.013089        81.9903 
 446   0.0000       3.026559        82.3569 
 447   0.0000       3.053193        83.0816 
 448   0.0000       3.053897        83.1007 
 449   0.0000       3.055614        83.1475 
 450   0.0000       3.078085        83.7589 
 451   0.0000       3.153925        85.8227 
 452   0.0000       3.189213        86.7829 
 453   0.0000       3.313620        90.1682 
 454   0.0000       3.334327        90.7317 
 455   0.0000       3.343213        90.9734 
 456   0.0000       3.399561        92.5067 
 457   0.0000       3.430753        93.3555 
 458   0.0000       3.445436        93.7551 
 459   0.0000       3.451981        93.9332 
 460   0.0000       3.481998        94.7500 
 461   0.0000       3.512972        95.5928 
 462   0.0000       3.516595        95.6914 
 463   0.0000       3.524833        95.9156 
 464   0.0000       3.540735        96.3483 
 465   0.0000       3.576213        97.3137 
 466   0.0000       3.586805        97.6019 
 467   0.0000       3.587607        97.6237 
 468   0.0000       3.681795       100.1867 
 469   0.0000       3.801862       103.4539 
 470   0.0000       3.844491       104.6139 
 471   0.0000       3.861374       105.0733 
 472   0.0000       3.994753       108.7028 
 473   0.0000       4.215944       114.7217 
 474   0.0000       4.542659       123.6120 
 475   0.0000       4.559591       124.0728 
 476   0.0000       4.563073       124.1675 
 477   0.0000       4.591171       124.9321 
 478   0.0000       4.619348       125.6989 
 479   0.0000       4.619744       125.7096 
 480   0.0000       5.202495       141.5671 
 481   0.0000       7.008383       190.7078 
 482   0.0000       7.055363       191.9862 
 483   0.0000       7.058858       192.0813 
 484   0.0000      18.718948       509.3685 
 485   0.0000      18.761303       510.5210 
 486   0.0000      19.001266       517.0507 
 487   0.0000      19.019244       517.5399 
 488   0.0000      19.050017       518.3773 
 489   0.0000      19.066190       518.8174 
 490   0.0000      19.248062       523.7664 
 491   0.0000      19.329034       525.9698 
 492   0.0000      19.778706       538.2060 
 493   0.0000      21.668869       589.6399 
 494   0.0000      21.702231       590.5477 
 495   0.0000      22.006698       598.8327 
 496   0.0000      22.118418       601.8727 
 497   0.0000      22.155088       602.8706 
 498   0.0000      22.192540       603.8897 
[...]
Total number of batches                      ...      239
Average number of points per batch           ...       58
Average number of grid points per atom       ...      437

Memory available               ... 849.9 MB
Memory needed per perturbation ...  34.9 MB
Perturbations treated per batch... 3
Number of batches              ... 1
     CP-SCF ITERATION   0:   4.4592e-02 (   5.5 sec   0/  3 done)
     CP-SCF ITERATION   1:   1.5474e-03 (   5.6 sec   0/  3 done)
     CP-SCF ITERATION   2:   3.4994e-04 (   5.8 sec   3/  3 done)
                    *** THE CP-SCF HAS CONVERGED ***

Forming final perturbed densities           ... done
Transforming perturbed density to AO basis  ... done

 Raw HFC matrix (all values in MHz): 
 -----------------------------------
                 0.0023               0.6278               0.2865
                 0.6272               0.2193               0.3306
                 0.2864               0.3302              -0.3398

 A(FC)          -0.0386              -0.0386              -0.0386
 A(SD)          -0.4570              -0.4912               0.9482
 A(ORB+DIA)      0.0029               0.0027              -0.0080    A(PC) =  -0.0008
 A(ORB)          0.0029               0.0028              -0.0082    A(PC) =  -0.0008
 A(DIA)         -0.0000              -0.0001               0.0002    A(PC) =   0.0000
             ----------           ----------           ----------
 A(Tot)         -0.4927              -0.5271               0.9016    A(iso)=   -0.0394
 Orientation: 
  X           0.0802338            0.7893458           -0.6086836
  Y           0.3607489           -0.5922517           -0.7204846
  Z          -0.9292054           -0.1617747           -0.3322743

Notes:  (1) The A matrix conforms to the "SAI" spin Hamiltonian convention.
        (2) Tensor is right-handed.

 Raw EFG matrix (all values in a.u.**-3):
 -----------------------------------
            -0.0729       0.0680      -0.1462
             0.0680      -0.0752      -0.1399
            -0.1462      -0.1399       0.1481

 V(El)       0.5977       0.4587      -1.0564
 V(Nuc)     -0.7391      -0.6049       1.3440
         ----------   ----------   ----------
 V(Tot)     -0.1414      -0.1461       0.2876 
 Orientation: 
  X       0.4389387    0.8004059   -0.4082685
  Y      -0.8756656    0.2792421   -0.3939970
  Z      -0.2013518    0.5304472    0.8234581

Note: Tensor is right-handed


 Quadrupole tensor eigenvalues (in MHz;Q= 0.0029 I=  1.0)
  e**2qQ            =     0.193091 MHz 
  e**2qQ/(4I*(2I-1))=     0.048273 MHz 
  eta               =     0.016372
  NOTE: the diagonal representation of the SH term I*Q*I = e**2qQ/(4I(2I-1))*[-(1-eta),-(1+eta),2]

 RHO(0)=      0.441168290 a.u.**-3

 -----------------------------------------------------------
 Nucleus  31H : A:ISTP=    1 I=  0.5 P=533.5514 MHz/au**3
                Q:ISTP=    2 I=  1.0 Q=  0.0029 barn     
 -----------------------------------------------------------
 Solving for nuclear perturbation:
Forming RHS of the CP-SCF equations         ... 
Calc. nucleus orbit integrals (SHARK)       ... done

------------------------------------------------------------------------------
                           ORCA CP-SCF CALCULATION
------------------------------------------------------------------------------

Input orbitals are from        ... input_56.gbw
Input Perturbation             ... input_56.pin.tmp
Wavefunction output            ... input_56.pout.tmp
Perturbation mode              ... Imaginary perturbation
Solver                         ... POPLE
Max. number of iterations      ... 64
Convergence tolerance          ... 1.000e-03
Integral handling              ... Direct
DFT GridXC                     ... 1
COSX GridX                     ... 1
COSX IntAccX                   ... 3.067
COSX Algorithm                 ... Auto
Number of perturbations        ... 3
Number of operators            ... 2
Orbital ranges used for CP-SCF:
 Operator 0:  Orbitals   0...116  to 117...516
 Operator 1:  Orbitals   0...115  to 116...516
Variables per perturbation     ... 93316
DFT calculation                         ... on
XC functional terms                     ... off
Hybrid DFT                              ... on
   Exchange mixing (SCF)                ...  0.200
   Exchange mixing (CP-SCF)             ...  0.200
   GGA exch. scaling(SCF)               ...  0.720
   GGA exch. scaling (CP-SCF)           ...  0.720
   GGA corr. scaling (SCF)              ...  0.810
   GGA corr. scaling (CP-SCF)           ...  0.810

CP-SCF GRID
-----------

General Integration Accuracy     IntAcc      ... 3.467
Radial Grid Type                 RadialGrid  ... OptM3 with GC (2021)
Angular Grid (max. ang.)         AngularGrid ... 1 (Lebedev-50)
Angular grid pruning method      GridPruning ... 4 (adaptive)
Weight generation scheme         WeightScheme... Becke
Basis function cutoff            BFCut       ... 1.0000e-10
Integration weight cutoff        WCut        ... 1.0000e-14
Angular grids for H and He will be reduced by one unit
Partially contracted basis set               ... off
Rotationally invariant grid construction     ... off

Total number of grid points                  ...    31437
Total number of batches                      ...      507
Average number of points per batch           ...       62
Average number of grid points per atom       ...      982

CP-SCF GRIDX
------------

General Integration Accuracy     IntAcc      ... 3.067
Radial Grid Type                 RadialGrid  ... OptM3 with GC (2021)
Angular Grid (max. ang.)         AngularGrid ... 1 (Lebedev-50)
Angular grid pruning method      GridPruning ... 4 (adaptive)
Weight generation scheme         WeightScheme... Becke
Basis function cutoff            BFCut       ... 1.0000e-10
Integration weight cutoff        WCut        ... 1.0000e-14
Angular grids for H and He will be reduced by one unit
Partially contracted basis set               ... on
Rotationally invariant grid construction     ... off

Total number of grid points                  ...    13988
Total number of batches                      ...      239
Average number of points per batch           ...       58
Average number of grid points per atom       ...      437

Memory available               ... 846.8 MB
Memory needed per perturbation ...  34.9 MB
Perturbations treated per batch... 3
Number of batches              ... 1
     CP-SCF ITERATION   0:   4.2053e-02 (   5.5 sec   0/  3 done)
     CP-SCF ITERATION   1:   1.3153e-03 (   5.6 sec   1/  3 done)
     CP-SCF ITERATION   2:   2.0219e-04 (   4.5 sec   3/  3 done)
                    *** THE CP-SCF HAS CONVERGED ***

Forming final perturbed densities           ... done
Transforming perturbed density to AO basis  ... done

 Raw HFC matrix (all values in MHz): 
 -----------------------------------
                 0.1365               0.3694               0.0873
                 0.3686               0.0889               0.0760
                 0.0867               0.0756              -0.2503

 A(FC)          -0.0081              -0.0081              -0.0081
 A(SD)          -0.2490              -0.2632               0.5121
 A(ORB+DIA)      0.0014               0.0019              -0.0038    A(PC) =  -0.0002
 A(ORB)          0.0015               0.0019              -0.0039    A(PC) =  -0.0002
 A(DIA)         -0.0001              -0.0000               0.0001    A(PC) =  -0.0000
             ----------           ----------           ----------
 A(Tot)         -0.2557              -0.2694               0.5002    A(iso)=   -0.0083
 Orientation: 
  X           0.6140313            0.3198398            0.7215733
  Y          -0.7258857           -0.1301485            0.6753898
  Z           0.3099283           -0.9384902            0.1522519

Notes:  (1) The A matrix conforms to the "SAI" spin Hamiltonian convention.
        (2) Tensor is right-handed.

 Raw EFG matrix (all values in a.u.**-3):
 -----------------------------------
             0.2611       0.0743       0.0808
             0.0743      -0.1295       0.0185
             0.0808       0.0185      -0.1315

 V(El)       0.5404       0.8264      -1.3668
 V(Nuc)     -0.6817      -0.9761       1.6578
         ----------   ----------   ----------
 V(Tot)     -0.1413      -0.1497       0.2909 
 Orientation: 
  X       0.2501954    0.0799287    0.9648905
  Y      -0.8488158    0.4975055    0.1788854
  Z      -0.4657402   -0.8637706    0.1923183

Note: Tensor is right-handed


 Quadrupole tensor eigenvalues (in MHz;Q= 0.0029 I=  1.0)
  e**2qQ            =     0.195352 MHz 
  e**2qQ/(4I*(2I-1))=     0.048838 MHz 
  eta               =     0.028878
  NOTE: the diagonal representation of the SH term I*Q*I = e**2qQ/(4I(2I-1))*[-(1-eta),-(1+eta),2]

 RHO(0)=      0.444963258 a.u.**-3

 -----------------------------------------------------------
 Nucleus   0V : A:ISTP=   51 I=  3.5 P=140.5173 MHz/au**3
                Q:ISTP=   51 I=  3.5 Q= -0.0430 barn     
 -----------------------------------------------------------
 Solving for nuclear perturbation:
Forming RHS of the CP-SCF equations         ... 
Calc. nucleus orbit integrals (SHARK)       ... done

------------------------------------------------------------------------------
                           ORCA CP-SCF CALCULATION
------------------------------------------------------------------------------

Input orbitals are from        ... input_56.gbw
Input Perturbation             ... input_56.pin.tmp
Wavefunction output            ... input_56.pout.tmp
Perturbation mode              ... Imaginary perturbation
Solver                         ... POPLE
Max. number of iterations      ... 64
Convergence tolerance          ... 1.000e-03
Integral handling              ... Direct
DFT GridXC                     ... 1
COSX GridX                     ... 1
COSX IntAccX                   ... 3.067
COSX Algorithm                 ... Auto
Number of perturbations        ... 3
Number of operators            ... 2
Orbital ranges used for CP-SCF:
 Operator 0:  Orbitals   0...116  to 117...516
 Operator 1:  Orbitals   0...115  to 116...516
Variables per perturbation     ... 93316
DFT calculation                         ... on
XC functional terms                     ... off
Hybrid DFT                              ... on
   Exchange mixing (SCF)                ...  0.200
   Exchange mixing (CP-SCF)             ...  0.200
   GGA exch. scaling(SCF)               ...  0.720
   GGA exch. scaling (CP-SCF)           ...  0.720
   GGA corr. scaling (SCF)              ...  0.810
   GGA corr. scaling (CP-SCF)           ...  0.810

CP-SCF GRID
-----------

General Integration Accuracy     IntAcc      ... 3.467
Radial Grid Type                 RadialGrid  ... OptM3 with GC (2021)
Angular Grid (max. ang.)         AngularGrid ... 1 (Lebedev-50)
Angular grid pruning method      GridPruning ... 4 (adaptive)
Weight generation scheme         WeightScheme... Becke
Basis function cutoff            BFCut       ... 1.0000e-10
Integration weight cutoff        WCut        ... 1.0000e-14
Angular grids for H and He will be reduced by one unit
Partially contracted basis set               ... off
Rotationally invariant grid construction     ... off

Total number of grid points                  ...    31437
Total number of batches                      ...      507
Average number of points per batch           ...       62
Average number of grid points per atom       ...      982

CP-SCF GRIDX
------------

General Integration Accuracy     IntAcc      ... 3.067
Radial Grid Type                 RadialGrid  ... OptM3 with GC (2021)
Angular Grid (max. ang.)         AngularGrid ... 1 (Lebedev-50)
Angular grid pruning method      GridPruning ... 4 (adaptive)
Weight generation scheme         WeightScheme... Becke
Basis function cutoff            BFCut       ... 1.0000e-10
Integration weight cutoff        WCut        ... 1.0000e-14
Angular grids for H and He will be reduced by one unit
Partially contracted basis set               ... on
Rotationally invariant grid construction     ... off

Total number of grid points                  ...    13988
Total number of batches                      ...      239
Average number of points per batch           ...       58
Average number of grid points per atom       ...      437

Memory available               ... 843.7 MB
Memory needed per perturbation ...  34.9 MB
Perturbations treated per batch... 3
Number of batches              ... 1
     CP-SCF ITERATION   0:   1.1928e+01 (   5.8 sec   0/  3 done)
     CP-SCF ITERATION   1:   1.8698e+00 (   5.5 sec   0/  3 done)
     CP-SCF ITERATION   2:   3.1804e-01 (   5.5 sec   0/  3 done)
     CP-SCF ITERATION   3:   4.0292e-02 (   5.5 sec   0/  3 done)
     CP-SCF ITERATION   4:   8.8543e-03 (   5.5 sec   0/  3 done)
     CP-SCF ITERATION   5:   2.0867e-03 (   5.6 sec   0/  3 done)
     CP-SCF ITERATION   6:   3.1772e-04 (   5.6 sec   3/  3 done)
                    *** THE CP-SCF HAS CONVERGED ***

Forming final perturbed densities           ... done
Transforming perturbed density to AO basis  ... done

 Raw HFC matrix (all values in MHz): 
 -----------------------------------
               -74.9391              -8.2353              -3.4710
                -8.2224            -136.2441            -114.6527
                -3.4485            -114.6116            -318.5543

 A(FC)        -165.4732            -165.4732            -165.4732
 A(SD)         100.7957              88.6093            -189.4049
 A(ORB+DIA)     -6.5283              -7.6613             -19.1283    A(PC) = -11.1060
 A(ORB)         -6.5279              -7.6617             -19.1282    A(PC) = -11.1060
 A(DIA)         -0.0004               0.0005              -0.0001    A(PC) =  -0.0000
             ----------           ----------           ----------
 A(Tot)        -71.2058             -84.5252            -374.0064    A(iso)= -176.5792
 Orientation: 
  X           0.8539730            0.5198340            0.0224213
  Y          -0.4765331            0.7640834            0.4348480
  Z           0.2089171           -0.3820329            0.9002247

Notes:  (1) The A matrix conforms to the "SAI" spin Hamiltonian convention.
        (2) Tensor is right-handed.

 Raw EFG matrix (all values in a.u.**-3):
 -----------------------------------
            -0.1299      -0.0397       0.0317
            -0.0397      -0.0781       0.1873
             0.0317       0.1873       0.2080

 V(El)       0.1397      -0.4671       0.3275
 V(Nuc)     -0.2365       0.2631      -0.0266
         ----------   ----------   ----------
 V(Tot)     -0.0968      -0.2040       0.3009 
 Orientation: 
  X      -0.8297791   -0.5575185    0.0252958
  Y       0.5098235   -0.7387947    0.4407522
  Z      -0.2270391    0.3786233    0.8972723

Note: Tensor is right-handed


 Quadrupole tensor eigenvalues (in MHz;Q=-0.0430 I=  3.5)
  e**2qQ            =    -3.039642 MHz 
  e**2qQ/(4I*(2I-1))=    -0.036186 MHz 
  eta               =     0.356345
  NOTE: the diagonal representation of the SH term I*Q*I = e**2qQ/(4I(2I-1))*[-(1-eta),-(1+eta),2]

 RHO(0)=   8115.216413673 a.u.**-3


--------------------------------------------------------------------------------
----------------------------------------------------------------------------
                           ORCA EULER ANGLE PROGRAM
----------------------------------------------------------------------------

Only g-tensor available        -->  using g-tensor as reference tensor

Reference tensor               ...  g

g-tensor ordering              ...  |g_min> --> |gx>
                                    |g_mid> --> |gy>
                                    |g_max> --> |gz>

A- and EFG-tensor ordering     ...  the axes |Ax>, |Qx>, |Ay>, etc. are assigned
                                    such that the Euler rotation is minimal. You
                                    can find the respective eigenvalues as Ax,
                                    EFGx, Ay, etc. in the tables below.
                                    The relation of |Ax>, |Ay>,  etc. to Amin, Amid, etc.
                                    (as printed in the ORCA EPR/NMR CALCULATION Output)
                                    is obtained in the detailed printout.

Euler rotation around          ...  z - y - z
   First rotation              -->  by alpha around z
   Second rotation             -->  by beta around y'
   Third rotation              -->  by gamma around z''
   Positive / Negative angle   -->  clockwise / counterclockwise rotation

Plot EFG-tensors                    (-)
Plot HFC-tensors                    (-)
Detailed Printout                   (-)

-------------------------------------------------------------------------
          Euler rotation of hyperfine tensor to g-tensor
-------------------------------------------------------------------------

-------------------------------------------------------------------
 Atom  |   Alpha    Beta    Gamma   |   Ax       Ay       Az 
       |          [degrees]         |           [MHz]         
-------------------------------------------------------------------
 19H      -45.6     17.4      3.9      -0.42     0.87    -0.45
 20H     -106.9     19.9     80.3      -0.22     0.55    -0.20
 21H      -17.1     12.1    -15.8      -0.08     0.50    -0.09
 22H     -176.1     38.3    158.3      -0.22     0.44    -0.23
 23H       64.0     21.4    -90.3      -0.30     0.47    -0.29
 24H      146.9     31.2    169.8      -0.56     0.95    -0.60
 26H      112.0     20.2    -84.7      -0.27     0.50    -0.26
 27H       37.5     23.5      5.4      -0.49     0.90    -0.53
 28H      -11.3      2.9     30.6      -0.22     0.45    -0.22
 29H      -17.7      1.6     51.0      -0.12     0.47    -0.12
 30H     -139.0     22.9   -177.9      -0.49     0.90    -0.53
 31H      -67.3     21.3     94.6      -0.27     0.50    -0.26
  0V     -107.7      0.6    108.2    -374.01   -84.53   -71.21
-------------------------------------------------------------------


-------------------------------------------------------------------------------
    Euler rotation of Electric Field Gradient (EFG) tensor to g-tensor
-------------------------------------------------------------------------------

-------------------------------------------------------------------
 Atom  |   Alpha    Beta    Gamma  |   EFGx     EFGy     EFGz
       |          [degrees]        |         [a.u.**-3]       
-------------------------------------------------------------------
 19H     -176.3     40.1   -142.5     -0.13     0.27    -0.14
 20H      150.6     35.6   -113.3     -0.13    -0.15     0.28
 21H      -70.3     30.2     92.4      0.24    -0.12    -0.12
 22H     -160.1      4.5   -164.3     -0.15     0.28    -0.14
 23H      -45.7     41.7     63.0     -0.14    -0.15     0.29
 24H     -128.1      5.6    156.5     -0.13     0.27    -0.13
 26H     -144.8     39.4    115.3     -0.14    -0.15     0.29
 27H       -2.5     41.4    -31.7     -0.15     0.29    -0.14
 28H     -111.8      0.7     76.9     -0.15     0.29    -0.14
 29H     -101.5      0.9     82.9      0.28    -0.14    -0.14
 30H      179.6     41.9    146.8     -0.15     0.29    -0.14
 31H       33.7     38.3    -63.6     -0.14    -0.15     0.29
  0V      -92.2      3.1     92.4      0.30    -0.20    -0.10
-------------------------------------------------------------------


Maximum memory used throughout the entire EPRNMR-calculation: 244.8 MB

Timings for individual modules:

Sum of individual times         ...     2578.457 sec (=  42.974 min)
GTO integral calculation        ...        1.465 sec (=   0.024 min)   0.1 %
Spin-Orbit-Coupling Matrices    ...       11.117 sec (=   0.185 min)   0.4 %
SCF iterations                  ...      204.212 sec (=   3.404 min)   7.9 %
EPR/NMR calculation             ...     2361.664 sec (=  39.361 min)  91.6 %
                             ****ORCA TERMINATED NORMALLY****
TOTAL RUN TIME: 0 days 0 hours 42 minutes 59 seconds 578 msec
