
                                 *****************
                                 * O   R   C   A *
                                 *****************

                                            #,                                       
                                            ###                                      
                                            ####                                     
                                            #####                                    
                                            ######                                   
                                           ########,                                 
                                     ,,################,,,,,                         
                               ,,#################################,,                 
                          ,,##########################################,,             
                       ,#########################################, ''#####,          
                    ,#############################################,,   '####,        
                  ,##################################################,,,,####,       
                ,###########''''           ''''###############################       
              ,#####''   ,,,,##########,,,,          '''####'''          '####       
            ,##' ,,,,###########################,,,                        '##       
           ' ,,###''''                  '''############,,,                           
         ,,##''                                '''############,,,,        ,,,,,,###''
      ,#''                                            '''#######################'''  
     '                                                          ''''####''''         
             ,#######,   #######,   ,#######,      ##                                
            ,#'     '#,  ##    ##  ,#'     '#,    #''#        ######   ,####,        
            ##       ##  ##   ,#'  ##            #'  '#       #        #'  '#        
            ##       ##  #######   ##           ,######,      #####,   #    #        
            '#,     ,#'  ##    ##  '#,     ,#' ,#      #,         ##   #,  ,#        
             '#######'   ##     ##  '#######'  #'      '#     #####' # '####'        



                  #######################################################
                  #                        -***-                        #
                  #          Department of theory and spectroscopy      #
                  #    Directorship and core code : Frank Neese         #
                  #        Max Planck Institute fuer Kohlenforschung    #
                  #                Kaiser Wilhelm Platz 1               #
                  #                 D-45470 Muelheim/Ruhr               #
                  #                      Germany                        #
                  #                                                     #
                  #                  All rights reserved                #
                  #                        -***-                        #
                  #######################################################


                         Program Version 5.0.4 -  RELEASE  -


 With contributions from (in alphabetic order):
   Daniel Aravena         : Magnetic Suceptibility
   Michael Atanasov       : Ab Initio Ligand Field Theory (pilot matlab implementation)
   Alexander A. Auer      : GIAO ZORA, VPT2 properties, NMR spectrum
   Ute Becker             : Parallelization
   Giovanni Bistoni       : ED, misc. LED, open-shell LED, HFLD
   Martin Brehm           : Molecular dynamics
   Dmytro Bykov           : SCF Hessian
   Vijay G. Chilkuri      : MRCI spin determinant printing, contributions to CSF-ICE
   Dipayan Datta          : RHF DLPNO-CCSD density
   Achintya Kumar Dutta   : EOM-CC, STEOM-CC
   Dmitry Ganyushin       : Spin-Orbit,Spin-Spin,Magnetic field MRCI
   Miquel Garcia          : C-PCM and meta-GGA Hessian, CC/C-PCM, Gaussian charge scheme
   Yang Guo               : DLPNO-NEVPT2, F12-NEVPT2, CIM, IAO-localization
   Andreas Hansen         : Spin unrestricted coupled pair/coupled cluster methods
   Benjamin Helmich-Paris : MC-RPA, TRAH-SCF, COSX integrals
   Lee Huntington         : MR-EOM, pCC
   Robert Izsak           : Overlap fitted RIJCOSX, COSX-SCS-MP3, EOM
   Marcus Kettner         : VPT2
   Christian Kollmar      : KDIIS, OOCD, Brueckner-CCSD(T), CCSD density, CASPT2, CASPT2-K
   Simone Kossmann        : Meta GGA functionals, TD-DFT gradient, OOMP2, MP2 Hessian
   Martin Krupicka        : Initial AUTO-CI
   Lucas Lang             : DCDCAS
   Marvin Lechner         : AUTO-CI (C++ implementation), FIC-MRCC
   Dagmar Lenk            : GEPOL surface, SMD
   Dimitrios Liakos       : Extrapolation schemes; Compound Job, initial MDCI parallelization
   Dimitrios Manganas     : Further ROCIS development; embedding schemes
   Dimitrios Pantazis     : SARC Basis sets
   Anastasios Papadopoulos: AUTO-CI, single reference methods and gradients
   Taras Petrenko         : DFT Hessian,TD-DFT gradient, ASA, ECA, R-Raman, ABS, FL, XAS/XES, NRVS
   Peter Pinski           : DLPNO-MP2, DLPNO-MP2 Gradient
   Christoph Reimann      : Effective Core Potentials
   Marius Retegan         : Local ZFS, SOC
   Christoph Riplinger    : Optimizer, TS searches, QM/MM, DLPNO-CCSD(T), (RO)-DLPNO pert. Triples
   Tobias Risthaus        : Range-separated hybrids, TD-DFT gradient, RPA, STAB
   Michael Roemelt        : Original ROCIS implementation
   Masaaki Saitow         : Open-shell DLPNO-CCSD energy and density
   Barbara Sandhoefer     : DKH picture change effects
   Avijit Sen             : IP-ROCIS
   Kantharuban Sivalingam : CASSCF convergence, NEVPT2, FIC-MRCI
   Bernardo de Souza      : ESD, SOC TD-DFT
   Georgi Stoychev        : AutoAux, RI-MP2 NMR, DLPNO-MP2 response
   Willem Van den Heuvel  : Paramagnetic NMR
   Boris Wezisla          : Elementary symmetry handling
   Frank Wennmohs         : Technical directorship


 We gratefully acknowledge several colleagues who have allowed us to
 interface, adapt or use parts of their codes:
   Stefan Grimme, W. Hujo, H. Kruse, P. Pracht,  : VdW corrections, initial TS optimization,
                  C. Bannwarth, S. Ehlert          DFT functionals, gCP, sTDA/sTD-DF
   Ed Valeev, F. Pavosevic, A. Kumar             : LibInt (2-el integral package), F12 methods
   Garnet Chan, S. Sharma, J. Yang, R. Olivares  : DMRG
   Ulf Ekstrom                                   : XCFun DFT Library
   Mihaly Kallay                                 : mrcc  (arbitrary order and MRCC methods)
   Jiri Pittner, Ondrej Demel                    : Mk-CCSD
   Frank Weinhold                                : gennbo (NPA and NBO analysis)
   Christopher J. Cramer and Donald G. Truhlar   : smd solvation model
   Lars Goerigk                                  : TD-DFT with DH, B97 family of functionals
   V. Asgeirsson, H. Jonsson                     : NEB implementation
   FAccTs GmbH                                   : IRC, NEB, NEB-TS, DLPNO-Multilevel, CI-OPT
                                                   MM, QMMM, 2- and 3-layer-ONIOM, Crystal-QMMM,
                                                   LR-CPCM, SF, NACMEs, symmetry and pop. for TD-DFT,
                                                   nearIR, NL-DFT gradient (VV10), updates on ESD,
                                                   ML-optimized integration grids
   S Lehtola, MJT Oliveira, MAL Marques          : LibXC Library
   Liviu Ungur et al                             : ANISO software


 Your calculation uses the libint2 library for the computation of 2-el integrals
 For citations please refer to: http://libint.valeyev.net

 Your ORCA version has been built with support for libXC version: 5.1.0
 For citations please refer to: https://tddft.org/programs/libxc/

 This ORCA versions uses:
   CBLAS   interface :  Fast vector & matrix operations
   LAPACKE interface :  Fast linear algebra routines
   SCALAPACK package :  Parallel linear algebra routines
   Shared memory     :  Shared parallel matrices
   BLAS/LAPACK       :  OpenBLAS 0.3.15  USE64BITINT DYNAMIC_ARCH NO_AFFINITY Prescott SINGLE_THREADED
        Core in use  :  Prescott
   Copyright (c) 2011-2014, The OpenBLAS Project


================================================================================

----- Orbital basis set information -----
Your calculation utilizes the basis: TZVP 

The basis set includes element-specific modifications.

Your calculation utilizes the basis: CP(PPP) 

----- AuxJ basis set information -----
Your calculation utilizes the auxiliary basis: def2/J
   F. Weigend, Phys. Chem. Chem. Phys. 8, 1057 (2006).

================================================================================
                                        WARNINGS
                       Please study these warnings very carefully!
================================================================================


WARNING: your system is open-shell and RHF/RKS was chosen
  ===> : WILL SWITCH to UHF/UKS


INFO   : the flag for use of the SHARK integral package has been found!

================================================================================
                                       INPUT FILE
================================================================================
NAME = input_43.inp
|  1> ! nofrozencore ReducedPop printbasis
|  2> ! B3LYP TZVP
|  3> 
|  4> %basis
|  5> newgto V "CP(PPP)" end
|  6> end
|  7> 
|  8> %pal
|  9> nprocs 8
| 10> end
| 11> 
| 12> % sym SymThresh 1e-2 end
| 13> * xyz -2 2 
| 14> V 0.1632465862721631 -0.9252480823757848 0.6011527219462773
| 15> S 2.3559809461792938 0.08811547833776781 0.18638913604990304
| 16> S -0.20506030077536921 0.9301759278895534 2.1559288412641835
| 17> S 0.30802180505760995 -1.5292361993759365 -1.7678302144596052
| 18> S -2.2490737054513694 -0.7133803134395486 0.21948981411022148
| 19> O 0.40276654291134417 -2.2492954165360954 1.460708492626424
| 20> C -1.9545737228959295 0.966354050720963 2.4001782567136414
| 21> C -2.793151045405895 0.2939269442844205 1.567614201585511
| 22> C 2.8559993416439933 -0.6186320050913966 -1.354810895022135
| 23> C 2.0149144491185513 -1.307411257429396 -2.171187318512655
| 24> S -2.523554731311483 2.0004559444654966 3.7281941803314234
| 25> S -4.613155925479689 0.3351192149930533 1.7788313064029093
| 26> S 2.5207700915913085 -1.9815379644179982 -3.7470473943160805
| 27> S 4.610715123681527 -0.3517560349651367 -1.7676288709177759
| 28> C -4.956586411174476 2.098117880601521 1.3115099505938628
| 29> C 2.8966809955004327 -0.5076743757049287 -4.786630038591685
| 30> C -3.4143862405949594 3.399969122987299 2.9299322505073047
| 31> C 4.468470235029823 0.8047926363302296 -3.2062728037567485
| 32> C -4.822677327096048 3.1278830945038076 2.4603307541141746
| 33> H -2.8406160192900565 3.478326541633567 1.9760249106441419
| 34> H -3.244938523170188 4.346439539003628 3.5005585961831893
| 35> H -5.25915287763973 4.074709957084316 2.1027538971483755
| 36> H -5.494454096609044 2.7472757503650564 3.250102769339029
| 37> H -6.072135083548597 2.0210669463217172 1.2254191371237422
| 38> H -4.548269697505765 2.3738147515533066 0.3109343529890749
| 39> C 4.251669285980945 0.1399469042924765 -4.579186446402815
| 40> H 5.5025523505950495 1.1930568405906354 -3.255611939583984
| 41> H 3.7988759316527396 1.647401803645291 -2.972812740434179
| 42> H 5.077051473871069 -0.5744003198740124 -4.706637080466929
| 43> H 4.382357728579443 0.9186721032842405 -5.348032664029862
| 44> H 2.1499476662167565 0.22730726370455975 -4.446201826990681
| 45> H 2.66656114732003 -0.752844782149977 -5.837665447665517
| 46> * 
| 47> 
| 48> % eprnmr
| 49> gtensor true
| 50> Nuclei = all H {aiso,adip,aorb,fgrad,rho}
| 51> Nuclei = all V {aiso,adip,aorb,fgrad,rho}
| 52> end
| 53> 
| 54>                          ****END OF INPUT****
================================================================================

------------------------------------------------------------------------------
                            SYMMETRY HANDLING SETUP
------------------------------------------------------------------------------

------------------
SYMMETRY DETECTION
------------------
The point group will now be determined using a tolerance of 1.0000e-02.
Splitting atom subsets according to nuclear charge, mass and basis set.
Splitting atom subsets according to distance from the molecule's center.
Identifying relative distance patterns of the atoms.
Splitting atom subsets according to atoms' relative distance patterns.
Bring atoms of each subset into input order.
The molecule is neither linear nor planar.

WARNING (ORCA_SYM): A non-planar off-center atom subset has been encountered
in function TSymmetryFinder::FilterSubsetShapes() which cannot occur under
regular conditions. The full point group may not be assigned correctly. If the
symmetry appears to be too low, please try increasing the cleaning tolerance
using option SymThresh in the %symmetry input block. If the problem persists,
you may post a message in the ORCA forum.
There is at least one atom subset not centered around the molecule's center.
The molecule does not have a center of inversion.
Analyzing the first atom subset for its symmetry.
The subset is an off-center atom pair.
Testing point group C2v.
Test failed.
Testing point group C2.
Test failed.
Testing point group Cs.
Test failed.
Testing point group Cs.
Test failed.
No testing is needed for point group C1.
This point group has been found:    C1
Largest non-degenerate subgroup:    C1


Mass-centered symmetry-perfected Cartesians (point group C1):

Atom          Symmetry-perfected Cartesians (x, y, z; au)
  0       0.308708861562   -1.750276862025    1.137318513064
  1       4.452376286226    0.164702741819    0.353528925397
  2      -0.387290288195    1.755966379678    4.075419578136
  3       0.582294376045   -2.891648991298   -3.339410452676
  4      -4.249915837096   -1.349904802131    0.416080141778
  5       0.761335983219   -4.252363711937    2.761643516481
  6      -3.693391523622    1.824333123869    4.536984081706
  7      -5.278073005283    0.553630047679    2.963666028566
  8       5.397274115577   -1.170856447700   -2.558917050920
  9       3.807854013325   -2.472460601346   -4.101644913508
 10      -4.768609804930    3.778502497615    7.046570478830
 11      -8.717383791023    0.631472158152    3.362808511471
 12       4.763782640897   -3.746375457117   -7.079588882156
 13       8.713206386497   -0.666533952437   -3.339029968523
 14      -9.366373355025    3.963056810621    2.479699132459
 15       5.474151300040   -0.961176915691   -9.044115373415
 16      -6.452037388943    6.423199125835    5.538074048327
 17       8.444402502995    1.519026296861   -6.057673005816
 18      -9.113321859273    5.909031047135    4.650655828064
 19      -5.367768806878    6.571273187638    3.735450418848
 20      -6.131827608992    8.211769005965    6.616401566454
 21      -9.938141113953    7.698274513652    3.974933496570
 22     -10.382795976783    5.189787402154    6.143108645074
 23     -11.474454834872    3.817451646469    2.317011072354
 24      -8.594766590289    4.484048392699    0.588885276702
 25       8.034708083719    0.262649942004   -8.652103795941
 26      10.398534501399    2.252739310519   -6.150910460214
 27       7.179052648779    3.111326861018   -5.616497422928
 28       9.594454374648   -1.087270676198   -8.892950589917
 29       8.281673449098    1.734227301681  -10.105012586357
 30       4.063029812623    0.427737096253   -8.400799285228
 31       5.039287809000   -1.424481840014  -11.030284453618


------------------
SYMMETRY REDUCTION
------------------
ORCA supports only abelian point groups.
It is now checked, if the determined point group is supported:
Point Group ( C1    ) is          ... supported

The point group is C1 - hence turning off symmetry
If this is a round-off problem, please increase the symmetry
        detection tolerance (%method SymThresh)

Storing the symmetry object:
Symmetry file                     ... input_43.sym.tmp
Writing symmetry information      ... done

                       ****************************
                       * Single Point Calculation *
                       ****************************

---------------------------------
CARTESIAN COORDINATES (ANGSTROEM)
---------------------------------
  V      0.163362   -0.926207    0.601843
  S      2.356096    0.087157    0.187079
  S     -0.204945    0.929217    2.156619
  S      0.308137   -1.530195   -1.767140
  S     -2.248959   -0.714339    0.220180
  O      0.402882   -2.250254    1.461399
  C     -1.954459    0.965396    2.400869
  C     -2.793036    0.292968    1.568305
  C      2.856114   -0.619591   -1.354121
  C      2.015030   -1.308370   -2.170497
  S     -2.523440    1.999497    3.728884
  S     -4.613041    0.334161    1.779522
  S      2.520885   -1.982497   -3.746357
  S      4.610830   -0.352715   -1.766939
  C     -4.956471    2.097159    1.312200
  C      2.896796   -0.508633   -4.785940
  C     -3.414271    3.399011    2.930623
  C      4.468585    0.803834   -3.205582
  C     -4.822562    3.126925    2.461021
  H     -2.840501    3.477368    1.976715
  H     -3.244823    4.345481    3.501249
  H     -5.259038    4.073751    2.103444
  H     -5.494339    2.746317    3.250793
  H     -6.072020    2.020108    1.226109
  H     -4.548155    2.372856    0.311625
  C      4.251784    0.138988   -4.578496
  H      5.502667    1.192098   -3.254922
  H      3.798991    1.646443   -2.972122
  H      5.077167   -0.575359   -4.705947
  H      4.382473    0.917714   -5.347342
  H      2.150063    0.226349   -4.445512
  H      2.666676   -0.753803   -5.836975

----------------------------
CARTESIAN COORDINATES (A.U.)
----------------------------
  NO LB      ZA    FRAG     MASS         X           Y           Z
   0 V    23.0000    0    50.940    0.308709   -1.750277    1.137319
   1 S    16.0000    0    32.060    4.452376    0.164703    0.353529
   2 S    16.0000    0    32.060   -0.387290    1.755966    4.075420
   3 S    16.0000    0    32.060    0.582294   -2.891649   -3.339410
   4 S    16.0000    0    32.060   -4.249916   -1.349905    0.416080
   5 O     8.0000    0    15.999    0.761336   -4.252364    2.761644
   6 C     6.0000    0    12.011   -3.693392    1.824333    4.536984
   7 C     6.0000    0    12.011   -5.278073    0.553630    2.963666
   8 C     6.0000    0    12.011    5.397274   -1.170856   -2.558917
   9 C     6.0000    0    12.011    3.807854   -2.472461   -4.101645
  10 S    16.0000    0    32.060   -4.768610    3.778502    7.046570
  11 S    16.0000    0    32.060   -8.717384    0.631472    3.362809
  12 S    16.0000    0    32.060    4.763783   -3.746375   -7.079589
  13 S    16.0000    0    32.060    8.713206   -0.666534   -3.339030
  14 C     6.0000    0    12.011   -9.366373    3.963057    2.479699
  15 C     6.0000    0    12.011    5.474151   -0.961177   -9.044115
  16 C     6.0000    0    12.011   -6.452037    6.423199    5.538074
  17 C     6.0000    0    12.011    8.444403    1.519026   -6.057673
  18 C     6.0000    0    12.011   -9.113322    5.909031    4.650656
  19 H     1.0000    0     1.008   -5.367769    6.571273    3.735450
  20 H     1.0000    0     1.008   -6.131828    8.211769    6.616402
  21 H     1.0000    0     1.008   -9.938141    7.698275    3.974933
  22 H     1.0000    0     1.008  -10.382796    5.189787    6.143109
  23 H     1.0000    0     1.008  -11.474455    3.817452    2.317011
  24 H     1.0000    0     1.008   -8.594767    4.484048    0.588885
  25 C     6.0000    0    12.011    8.034708    0.262650   -8.652104
  26 H     1.0000    0     1.008   10.398535    2.252739   -6.150910
  27 H     1.0000    0     1.008    7.179053    3.111327   -5.616497
  28 H     1.0000    0     1.008    9.594454   -1.087271   -8.892951
  29 H     1.0000    0     1.008    8.281673    1.734227  -10.105013
  30 H     1.0000    0     1.008    4.063030    0.427737   -8.400799
  31 H     1.0000    0     1.008    5.039288   -1.424482  -11.030284

--------------------------------
INTERNAL COORDINATES (ANGSTROEM)
--------------------------------
 V      0   0   0     0.000000000000     0.00000000     0.00000000
 S      1   0   0     2.450921971725     0.00000000     0.00000000
 S      1   2   0     2.448586735674    85.91265239     0.00000000
 S      1   2   3     2.449049134345    83.41864232   145.65714755
 S      1   2   3     2.451498259553   144.91298001    72.44159275
 O      1   2   3     1.596655027122   107.44328445   252.39939877
 C      3   1   2     1.766851393779   104.60974289   162.15811973
 C      7   3   1     1.359607680616   121.06080841   345.07510808
 C      2   1   3     1.767712628487   103.60938522   199.13634405
 C      9   2   1     1.359526064376   123.44258495    12.74806957
 S      7   3   1     1.776719563681   115.61650663   168.40998585
 S      8   7   3     1.832683069171   122.06098812   181.03347714
 S     10   9   2     1.787084700457   123.05916445   178.37236003
 S      9   2   1     1.822270270949   114.28869358   192.88286680
 C     12   8   7     1.855935894108   100.14241134    69.29419992
 C     13  10   9     1.842366673627   104.68800760   294.09753924
 C     11   7   3     1.841043188900   105.86131019   111.40715497
 C     14   9   2     1.851360257464   101.15965457   248.59284619
 C     17  11   7     1.509251521990   116.70347524    79.16795170
 H     17  11   7     1.115926236343   100.09184650   328.86379712
 H     17  11   7     1.118093557675   110.41835561   215.89662408
 H     19  17  11     1.102203802645   108.39643724   174.28440941
 H     19  17  11     1.104484411163   114.02745130    55.62611396
 H     15  12   8     1.121515633004    97.93944558   167.84584927
 H     15  12   8     1.115294951946   113.13943685    54.11249289
 C     16  13  10     1.516060497996   116.54385392    80.54745593
 H     18  14   9     1.105671408858   100.49714171   163.90435078
 H     18  14   9     1.101294847498   111.09710299    49.77566046
 H     26  16  13     1.098995621868   112.19185939    55.42136434
 H     26  16  13     1.102096597823   108.20161807   173.00578046
 H     16  13  10     1.101680553784   102.77039747   324.92325338
 H     16  13  10     1.103512167513   108.49055051   211.25546747

---------------------------
INTERNAL COORDINATES (A.U.)
---------------------------
 V      0   0   0     0.000000000000     0.00000000     0.00000000
 S      1   0   0     4.631571302171     0.00000000     0.00000000
 S      1   2   0     4.627158345575    85.91265239     0.00000000
 S      1   2   3     4.628032152428    83.41864232   145.65714755
 S      1   2   3     4.632660328340   144.91298001    72.44159275
 O      1   2   3     3.017240731610   107.44328445   252.39939877
 C      3   1   2     3.338865253579   104.60974289   162.15811973
 C      7   3   1     2.569286165940   121.06080841   345.07510808
 C      2   1   3     3.340492751315   103.60938522   199.13634405
 C      9   2   1     2.569131933598   123.44258495    12.74806957
 S      7   3   1     3.357513392137   115.61650663   168.40998585
 S      8   7   3     3.463269091007   122.06098812   181.03347714
 S     10   9   2     3.377100661985   123.05916445   178.37236003
 S      9   2   1     3.443591754080   114.28869358   192.88286680
 C     12   8   7     3.507210561978   100.14241134    69.29419992
 C     13  10   9     3.481568451418   104.68800760   294.09753924
 C     11   7   3     3.479067427742   105.86131019   111.40715497
 C     14   9   2     3.498563861833   101.15965457   248.59284619
 C     17  11   7     2.852072043765   116.70347524    79.16795170
 H     17  11   7     2.108794972345   100.09184650   328.86379712
 H     17  11   7     2.112890616107   110.41835561   215.89662408
 H     19  17  11     2.082863330765   108.39643724   174.28440941
 H     19  17  11     2.087173056283   114.02745130    55.62611396
 H     15  12   8     2.119357401289    97.93944558   167.84584927
 H     15  12   8     2.107602017723   113.13943685    54.11249289
 C     16  13  10     2.864939143669   116.54385392    80.54745593
 H     18  14   9     2.089416156848   100.49714171   163.90435078
 H     18  14   9     2.081145654469   111.09710299    49.77566046
 H     26  16  13     2.076800747708   112.19185939    55.42136434
 H     26  16  13     2.082660743012   108.20161807   173.00578046
 H     16  13  10     2.081874533719   102.77039747   324.92325338
 H     16  13  10     2.085335782050   108.49055051   211.25546747

---------------------
BASIS SET INFORMATION
---------------------
There are 5 groups of distinct atoms

 Group   1 Type V   : 17s11p5d1f contracted to 17s7p3d1f pattern {11111111111111111/3311111/311/1}
 Group   2 Type S   : 14s9p1d contracted to 5s4p1d pattern {73211/6111/1}
 Group   3 Type O   : 11s6p1d contracted to 5s3p1d pattern {62111/411/1}
 Group   4 Type C   : 11s6p1d contracted to 5s3p1d pattern {62111/411/1}
 Group   5 Type H   : 5s1p contracted to 3s1p pattern {311/1}

Atom   0V    basis set group =>   1
Atom   1S    basis set group =>   2
Atom   2S    basis set group =>   2
Atom   3S    basis set group =>   2
Atom   4S    basis set group =>   2
Atom   5O    basis set group =>   3
Atom   6C    basis set group =>   4
Atom   7C    basis set group =>   4
Atom   8C    basis set group =>   4
Atom   9C    basis set group =>   4
Atom  10S    basis set group =>   2
Atom  11S    basis set group =>   2
Atom  12S    basis set group =>   2
Atom  13S    basis set group =>   2
Atom  14C    basis set group =>   4
Atom  15C    basis set group =>   4
Atom  16C    basis set group =>   4
Atom  17C    basis set group =>   4
Atom  18C    basis set group =>   4
Atom  19H    basis set group =>   5
Atom  20H    basis set group =>   5
Atom  21H    basis set group =>   5
Atom  22H    basis set group =>   5
Atom  23H    basis set group =>   5
Atom  24H    basis set group =>   5
Atom  25C    basis set group =>   4
Atom  26H    basis set group =>   5
Atom  27H    basis set group =>   5
Atom  28H    basis set group =>   5
Atom  29H    basis set group =>   5
Atom  30H    basis set group =>   5
Atom  31H    basis set group =>   5

-------------------------
BASIS SET IN INPUT FORMAT
-------------------------

 # Basis set for element : H 
 NewGTO H 
 S 3 
   1      34.0613410000      0.0254393168
   2       5.1235746000      0.1900859340
   3       1.1646626000      0.8524411390
 S 1 
   1       0.3272304100      1.0000000000
 S 1 
   1       0.1030724100      1.0000000000
 P 1 
   1       0.8000000000      1.0000000000
  end;

 # Basis set for element : C 
 NewGTO C 
 S 6 
   1   13575.3496820000      0.0006064601
   2    2035.2333680000      0.0046978985
   3     463.2256235900      0.0243324735
   4     131.2001959800      0.0973999560
   5      42.8530158900      0.3019558443
   6      15.5841857700      0.6623361013
 S 2 
   1       6.2067138500      0.6559530795
   2       2.5764896500      0.3758563390
 S 1 
   1       0.5769633900      1.0000000000
 S 1 
   1       0.2297283100      1.0000000000
 S 1 
   1       0.0951644400      1.0000000000
 P 4 
   1      34.6972322400      0.0113272290
   2       7.9582622800      0.0761696612
   3       2.3780826900      0.3019225154
   4       0.8143320800      0.7278502776
 P 1 
   1       0.2888754700      1.0000000000
 P 1 
   1       0.1005682400      1.0000000000
 D 1 
   1       0.8000000000      1.0000000000
  end;

 # Basis set for element : O 
 NewGTO O 
 S 6 
   1   27032.3826310000      0.0005722654
   2    4052.3871392000      0.0044353333
   3     922.3272271000      0.0230201034
   4     261.2407098900      0.0928224938
   5      85.3546413500      0.2937849971
   6      31.0350352400      0.6740160462
 S 2 
   1      12.2608607300      0.6383993750
   2       4.9987076000      0.3953458663
 S 1 
   1       1.1703108200      1.0000000000
 S 1 
   1       0.4647474100      1.0000000000
 S 1 
   1       0.1850453600      1.0000000000
 P 4 
   1      63.2749548000      0.0120183316
   2      14.6270493800      0.0830054304
   3       4.4501223500      0.3199174388
   4       1.5275799600      0.7071554258
 P 1 
   1       0.5293511800      1.0000000000
 P 1 
   1       0.1747842100      1.0000000000
 D 1 
   1       1.2000000000      1.0000000000
  end;

 # Basis set for element : S 
 NewGTO S 
 S 7 
   1   60700.9281040000      0.0005238013
   2    9102.6106854000      0.0040506304
   3    2071.4166009000      0.0208270003
   4     586.0247682100      0.0814968475
   5     190.5539502100      0.2374911358
   6      67.6303842600      0.4472617145
   7      25.1273069100      0.3489191913
 S 3 
   1     112.5746301000      0.1004556993
   2      34.7955542200      0.4339117282
   3       6.5115556200     -1.2084330582
 S 2 
   1       3.2399032300      0.6749812922
   2       1.5477160900      0.3470879597
 S 1 
   1       0.4054103000      1.0000000000
 S 1 
   1       0.1455065100      1.0000000000
 P 6 
   1     564.3671602700      0.0025564845
   2     133.4262437900      0.0202874255
   3      42.4682711900      0.0927670112
   4      15.6165275800      0.2650208365
   5       6.1093988500      0.4486298663
   6       2.4404160200      0.3596369916
 P 1 
   1       0.8388220100      1.0000000000
 P 1 
   1       0.3128874700      1.0000000000
 P 1 
   1       0.1077010900      1.0000000000
 D 1 
   1       0.5500000000      1.0000000000
  end;

 # Basis set for element : V 
 NewGTO V 
 S 1 
   1  4239814.9912500000      1.0000000000
 S 1 
   1  1695925.9965000001      1.0000000000
 S 1 
   1  678370.3986000001      1.0000000000
 S 1 
   1  271348.1594400000      1.0000000000
 S 1 
   1   40672.0050780000      1.0000000000
 S 1 
   1    9257.0761385000      1.0000000000
 S 1 
   1    2622.7328773000      1.0000000000
 S 1 
   1     858.5948018500      1.0000000000
 S 1 
   1     314.1941865000      1.0000000000
 S 1 
   1     124.4786212700      1.0000000000
 S 1 
   1      50.4693993090      1.0000000000
 S 1 
   1      12.5138469110      1.0000000000
 S 1 
   1       5.3447758082      1.0000000000
 S 1 
   1       1.5755631295      1.0000000000
 S 1 
   1       0.6306903307      1.0000000000
 S 1 
   1       0.0879544416      1.0000000000
 S 1 
   1       0.0342969197      1.0000000000
 P 3 
   1    1450.0319327000     -0.0222847647
   2     343.7504988400     -0.1817959329
   3     110.8252170800     -0.8607412073
 P 3 
   1      41.8224645460     -0.2522537814
   2      17.0880737100     -0.4620379520
   3       7.2613218939     -0.3990010670
 P 1 
   1       2.9458145262      1.0000000000
 P 1 
   1       1.1650209680      1.0000000000
 P 1 
   1       0.4339937839      1.0000000000
 D 3 
   1      27.3603358640      0.0575501019
   2       7.4542765527      0.3023798347
   3       2.4632270217      0.7724212088
 D 1 
   1       0.8249954244      1.0000000000
 D 1 
   1       0.2526297057      1.0000000000
 P 1 
   1       0.1112480000      1.0000000000
 P 1 
   1       0.0363780000      1.0000000000
 F 1 
   1       1.8000000000      1.0000000000
  end;

---------------------------------
AUXILIARY/J BASIS SET INFORMATION
---------------------------------
There are 5 groups of distinct atoms

 Group   1 Type V   : 19s5p5d3f3g contracted to 8s5p5d2f3g pattern {121111111/11111/11111/21/111}
 Group   2 Type S   : 14s5p5d2f1g contracted to 8s4p3d1f1g pattern {71111111/2111/311/2/1}
 Group   3 Type O   : 12s5p4d2f1g contracted to 6s4p3d1f1g pattern {711111/2111/211/2/1}
 Group   4 Type C   : 12s5p4d2f1g contracted to 6s4p3d1f1g pattern {711111/2111/211/2/1}
 Group   5 Type H   : 5s2p1d contracted to 3s1p1d pattern {311/2/1}

Atom   0V    basis set group =>   1
Atom   1S    basis set group =>   2
Atom   2S    basis set group =>   2
Atom   3S    basis set group =>   2
Atom   4S    basis set group =>   2
Atom   5O    basis set group =>   3
Atom   6C    basis set group =>   4
Atom   7C    basis set group =>   4
Atom   8C    basis set group =>   4
Atom   9C    basis set group =>   4
Atom  10S    basis set group =>   2
Atom  11S    basis set group =>   2
Atom  12S    basis set group =>   2
Atom  13S    basis set group =>   2
Atom  14C    basis set group =>   4
Atom  15C    basis set group =>   4
Atom  16C    basis set group =>   4
Atom  17C    basis set group =>   4
Atom  18C    basis set group =>   4
Atom  19H    basis set group =>   5
Atom  20H    basis set group =>   5
Atom  21H    basis set group =>   5
Atom  22H    basis set group =>   5
Atom  23H    basis set group =>   5
Atom  24H    basis set group =>   5
Atom  25C    basis set group =>   4
Atom  26H    basis set group =>   5
Atom  27H    basis set group =>   5
Atom  28H    basis set group =>   5
Atom  29H    basis set group =>   5
Atom  30H    basis set group =>   5
Atom  31H    basis set group =>   5

-------------------------------------
AUXILIARY/J BASIS SET IN INPUT FORMAT
-------------------------------------

 # Auxiliary/J basis set for element : H 
 NewAuxJGTO H 
 S 3 
   1      15.6752927000      0.1007184237
   2       3.6063578000      0.3404257499
   3       1.2080016000      0.6491996172
 S 1 
   1       0.4726794000      1.0000000000
 S 1 
   1       0.2018100000      1.0000000000
 P 2 
   1       2.0281365000      0.5596620919
   2       0.5358730000      0.5596620919
 D 1 
   1       2.2165124000      1.0000000000
  end;

 # Auxiliary/J basis set for element : C 
 NewAuxJGTO C 
 S 7 
   1    1861.0916331000      0.0134602335
   2     642.9939764000      0.0299160374
   3     235.1105725000      0.1008649584
   4      90.7028894000      0.2370970548
   5      36.7794552000      0.3924037254
   6      15.6046273000      0.3195862154
   7       6.8907294000      0.0530104441
 S 1 
   1       3.1478850000     -1.0000000000
 S 1 
   1       1.4777287000      1.0000000000
 S 1 
   1       0.7076466000      1.0000000000
 S 1 
   1       0.3430122000      1.0000000000
 S 1 
   1       0.1669453000      1.0000000000
 P 2 
   1      13.5472892000     -0.6769313712
   2       5.4669419000     -0.3779500978
 P 1 
   1       2.1751721000      1.0000000000
 P 1 
   1       0.8582194000      1.0000000000
 P 1 
   1       0.3376720000      1.0000000000
 D 2 
   1       5.9287253000     -0.3533329857
   2       1.9809209000     -0.7456525731
 D 1 
   1       0.8055417000     -1.0000000000
 D 1 
   1       0.3531244000     -1.0000000000
 F 2 
   1       1.6755626000      0.6311076882
   2       0.5997536000      0.4968166032
 G 1 
   1       1.0024600000     -1.0000000000
  end;

 # Auxiliary/J basis set for element : O 
 NewAuxJGTO O 
 S 7 
   1    2876.8216605000      0.0168151159
   2    1004.7443032000      0.0340137548
   3     369.7579954000      0.1194951309
   4     142.9442404000      0.2664627624
   5      57.8366425000      0.4202764046
   6      24.3864983000      0.2765077335
   7      10.6622662000      0.0057008815
 S 1 
   1       4.8070437000     -1.0000000000
 S 1 
   1       2.2210770000      1.0000000000
 S 1 
   1       1.0447795000      1.0000000000
 S 1 
   1       0.4968425000      1.0000000000
 S 1 
   1       0.2371384000      1.0000000000
 P 2 
   1      64.2613382000     -0.2731534179
   2      16.3006076000     -0.8168011598
 P 1 
   1       4.3550542000      1.0000000000
 P 1 
   1       1.2019554000      1.0000000000
 P 1 
   1       0.3354196000      1.0000000000
 D 2 
   1       9.2146611000     -0.4661230638
   2       2.8435251000     -0.6600908911
 D 1 
   1       0.9955759000     -1.0000000000
 D 1 
   1       0.3649441000     -1.0000000000
 F 2 
   1       2.6420115000      0.5931563945
   2       0.7345613000      0.5931563945
 G 1 
   1       1.3931000000     -1.0000000000
  end;

 # Auxiliary/J basis set for element : S 
 NewAuxJGTO S 
 S 7 
   1    7399.0303145000      0.0295137551
   2    2710.1675859000      0.0559686311
   3    1034.3279062000      0.1764696370
   4     410.4645411000      0.3577969368
   5     168.9762502000      0.4299293578
   6      71.9687889000      0.1259148089
   7      31.6172683000     -0.0646025788
 S 1 
   1      14.2796836000      1.0000000000
 S 1 
   1       6.6060948000      1.0000000000
 S 1 
   1       3.1181477000      1.0000000000
 S 1 
   1       1.4954039000     -1.0000000000
 S 1 
   1       0.7254779000      1.0000000000
 S 1 
   1       0.3544216000      1.0000000000
 S 1 
   1       0.1735525000      1.0000000000
 P 2 
   1      12.6998799000      1.4059102813
   2       4.4295784000     -1.2124994202
 P 1 
   1       1.5232889000      1.0000000000
 P 1 
   1       0.5194667000     -1.0000000000
 P 1 
   1       0.1766547000     -1.0000000000
 D 3 
   1      16.8546461000      1.0295742104
   2       5.0810461000     -0.7461553923
   3       1.5102323000      0.8357028005
 D 1 
   1       0.4451331000      1.0000000000
 D 1 
   1       0.1308362000      1.0000000000
 F 2 
   1       1.0809860000      0.5572698934
   2       0.4161474000      0.5572698934
 G 1 
   1       0.6707100000     -1.0000000000
  end;

 # Auxiliary/J basis set for element : V 
 NewAuxJGTO V 
 S 12 
   1   11942.0842430000      0.0459866720
   2    2430.7110193000      0.1744615821
   3     841.0764301000      0.2900402792
   4     494.7508273000      0.1411212903
   5     291.0298903000      0.2660697186
   6     171.1940483000      0.0446365706
   7      59.2366916000     -0.0408204801
   8      34.8451117000      0.1394665381
   9      20.4971240000      0.2164746715
  10      12.0571314000      0.0864266611
  11       7.0924300000     -0.0568501658
  12       4.1720176000     -0.0126212852
 S 1 
   1       2.4541279000      1.0000000000
 S 1 
   1       1.4436046000      1.0000000000
 S 1 
   1       0.8491792000      1.0000000000
 S 1 
   1       0.2938336000      1.0000000000
 S 1 
   1       0.1728433000      1.0000000000
 S 1 
   1       0.1016725000      1.0000000000
 S 1 
   1       0.0598074000      1.0000000000
 P 1 
   1      16.7130979000     -1.0000000000
 P 1 
   1       4.7454037000     -1.0000000000
 P 1 
   1       1.3889998000      1.0000000000
 P 1 
   1       0.4142440000     -1.0000000000
 P 1 
   1       0.1243234000      1.0000000000
 D 1 
   1       7.7143225000      1.0000000000
 D 1 
   1       3.1170731000      1.0000000000
 D 1 
   1       1.2767950000     -1.0000000000
 D 1 
   1       0.5273386000      1.0000000000
 D 1 
   1       0.2184050000      1.0000000000
 F 2 
   1       3.1309344000     -1.0825667766
   2       1.0419780000      0.1809223232
 F 1 
   1       0.3559044000      1.0000000000
 G 1 
   1       8.7130110000      1.0000000000
 G 1 
   1       2.7493872000      1.0000000000
 G 1 
   1       0.8775089000      1.0000000000
  end;



           ************************************************************
           *        Program running with 8 parallel MPI-processes     *
           *              working on a common directory               *
           ************************************************************
------------------------------------------------------------------------------
                           ORCA GTO INTEGRAL CALCULATION
                           -- RI-GTO INTEGRALS CHOSEN --
------------------------------------------------------------------------------
------------------------------------------------------------------------------
                   ___                                                        
                  /   \      - P O W E R E D   B Y -                         
                 /     \                                                     
                 |  |  |   _    _      __       _____    __    __             
                 |  |  |  | |  | |    /  \     |  _  \  |  |  /  |          
                  \  \/   | |  | |   /    \    | | | |  |  | /  /          
                 / \  \   | |__| |  /  /\  \   | |_| |  |  |/  /          
                |  |  |   |  __  | /  /__\  \  |    /   |      \           
                |  |  |   | |  | | |   __   |  |    \   |  |\   \          
                \     /   | |  | | |  |  |  |  | |\  \  |  | \   \       
                 \___/    |_|  |_| |__|  |__|  |_| \__\ |__|  \__/        
                                                                              
                      - O R C A' S   B I G   F R I E N D -                    
                                      &                                       
                       - I N T E G R A L  F E E D E R -                       
                                                                              
 v1 FN, 2020, v2 2021                                                         
------------------------------------------------------------------------------


Reading SHARK input file input_43.SHARKINP.tmp ... ok
----------------------
SHARK INTEGRAL PACKAGE
----------------------

Number of atoms                             ...     32
Number of basis functions                   ...    517
Number of shells                            ...    255
Maximum angular momentum                    ...      3
Integral batch strategy                     ... SHARK/LIBINT Hybrid
RI-J (if used) integral strategy            ... SPLIT-RIJ (Revised 2003 algorithm where possible)
Printlevel                                  ...      1
Contraction scheme used                     ... SEGMENTED contraction
Coulomb Range Separation                    ... NOT USED
Exchange Range Separation                   ... NOT USED
Finite Nucleus Model                        ... NOT USED
Auxiliary Coulomb fitting basis             ... AVAILABLE
   # of basis functions in Aux-J            ...   1168
   # of shells in Aux-J                     ...    384
   Maximum angular momentum in Aux-J        ...      4
Auxiliary J/K fitting basis                 ... NOT available
Auxiliary Correlation fitting basis         ... NOT available
Auxiliary 'external' fitting basis          ... NOT available
Integral threshold                          ...     1.000000e-10
Primitive cut-off                           ...     1.000000e-11
Primitive pair pre-selection threshold      ...     1.000000e-11

Calculating pre-screening integrals         ... done (  0.1 sec) Dimension = 255
Organizing shell pair data                  ... done (  0.1 sec)
Shell pair information
Total number of shell pairs                 ...     32640
Shell pairs after pre-screening             ...     17817
Total number of primitive shell pairs       ...    123863
Primitive shell pairs kept                  ...     41662
          la=0 lb=0:   5378 shell pairs
          la=1 lb=0:   7056 shell pairs
          la=1 lb=1:   2297 shell pairs
          la=2 lb=0:   1678 shell pairs
          la=2 lb=1:   1117 shell pairs
          la=2 lb=2:    154 shell pairs
          la=3 lb=0:     72 shell pairs
          la=3 lb=1:     52 shell pairs
          la=3 lb=2:     12 shell pairs
          la=3 lb=3:      1 shell pairs

Calculating one electron integrals          ... done (  0.0 sec)
Calculating RI/J V-Matrix + Cholesky decomp.... done (  0.1 sec)
Calculating Nuclear repulsion               ... done (  0.0 sec) ENN=   3211.679182001483 Eh

SHARK setup successfully completed in   0.5 seconds

Maximum memory used throughout the entire GTOINT-calculation: 31.6 MB


           ************************************************************
           *        Program running with 8 parallel MPI-processes     *
           *              working on a common directory               *
           ************************************************************
-------------------------------------------------------------------------------
                                 ORCA SCF
-------------------------------------------------------------------------------

------------
SCF SETTINGS
------------
Hamiltonian:
 Density Functional     Method          .... DFT(GTOs)
 Exchange Functional    Exchange        .... B88
   X-Alpha parameter    XAlpha          ....  0.666667
   Becke's b parameter  XBeta           ....  0.004200
 Correlation Functional Correlation     .... LYP
 LDA part of GGA corr.  LDAOpt          .... VWN-5
 Gradients option       PostSCFGGA      .... off
 Hybrid DFT is turned on
   Fraction HF Exchange ScalHFX         ....  0.200000
   Scaling of DF-GGA-X  ScalDFX         ....  0.720000
   Scaling of DF-GGA-C  ScalDFC         ....  0.810000
   Scaling of DF-LDA-C  ScalLDAC        ....  1.000000
   Perturbative correction              ....  0.000000
   Density functional embedding theory  .... OFF
   NL short-range parameter             ....  4.800000
 RI-approximation to the Coulomb term is turned on
   Number of AuxJ basis functions       .... 1168
   RIJ-COSX (HFX calculated with COS-X)).... on


General Settings:
 Integral files         IntName         .... input_43
 Hartree-Fock type      HFTyp           .... UHF
 Total Charge           Charge          ....   -2
 Multiplicity           Mult            ....    2
 Number of Electrons    NEL             ....  233
 Basis Dimension        Dim             ....  517
 Nuclear Repulsion      ENuc            ....   3211.6791820015 Eh

Convergence Acceleration:
 DIIS                   CNVDIIS         .... on
   Start iteration      DIISMaxIt       ....    12
   Startup error        DIISStart       ....  0.200000
   # of expansion vecs  DIISMaxEq       ....     5
   Bias factor          DIISBfac        ....   1.050
   Max. coefficient     DIISMaxC        ....  10.000
 Trust-Rad. Augm. Hess. CNVTRAH         .... auto
   Auto Start mean grad. ratio tolernc. ....  1.125000
   Auto Start start iteration           ....    20
   Auto Start num. interpolation iter.  ....    10
   Max. Number of Micro iterations      ....    16
   Max. Number of Macro iterations      .... Maxiter - #DIIS iter
   Number of Davidson start vectors     ....     2
   Converg. threshold I  (grad. norm)   ....   5.000e-05
   Converg. threshold II (energy diff.) ....   1.000e-06
   Grad. Scal. Fac. for Micro threshold ....   0.100
   Minimum threshold for Micro iter.    ....   0.010
   NR start threshold (gradient norm)   ....   0.001
   Initial trust radius                 ....   0.400
   Minimum AH scaling param. (alpha)    ....   1.000
   Maximum AH scaling param. (alpha)    .... 1000.000
   Orbital update algorithm             .... Taylor
   White noise on init. David. guess    .... on
   Maximum white noise                  ....   0.010
   Quad. conv. algorithm                .... NR
 SOSCF                  CNVSOSCF        .... off
 Level Shifting         CNVShift        .... on
   Level shift para.    LevelShift      ....    0.2500
   Turn off err/grad.   ShiftErr        ....    0.0010
 Zerner damping         CNVZerner       .... off
 Static damping         CNVDamp         .... on
   Fraction old density DampFac         ....    0.7000
   Max. Damping (<1)    DampMax         ....    0.9800
   Min. Damping (>=0)   DampMin         ....    0.0000
   Turn off err/grad.   DampErr         ....    0.1000
 Fernandez-Rico         CNVRico         .... off

SCF Procedure:
 Maximum # iterations   MaxIter         ....   125
 SCF integral mode      SCFMode         .... Direct
   Integral package                     .... SHARK and LIBINT hybrid scheme
 Reset frequency        DirectResetFreq ....    20
 Integral Threshold     Thresh          ....  1.000e-10 Eh
 Primitive CutOff       TCut            ....  1.000e-11 Eh

Convergence Tolerance:
 Convergence Check Mode ConvCheckMode   .... Total+1el-Energy
 Convergence forced     ConvForced      .... 0
 Energy Change          TolE            ....  1.000e-06 Eh
 1-El. energy change                    ....  1.000e-03 Eh
 DIIS Error             TolErr          ....  1.000e-06


Diagonalization of the overlap matrix:
Smallest eigenvalue                        ... 1.830e-04
Time for diagonalization                   ...    0.108 sec
Threshold for overlap eigenvalues          ... 1.000e-08
Number of eigenvalues below threshold      ... 0
Time for construction of square roots      ...    0.103 sec
Total time needed                          ...    0.215 sec

Time for model grid setup =    0.267 sec

------------------------------
INITIAL GUESS: MODEL POTENTIAL
------------------------------
Loading Hartree-Fock densities                     ... done
Calculating cut-offs                               ... done
Initializing the effective Hamiltonian             ... done
Setting up the integral package (SHARK)            ... done
Starting the Coulomb interaction                   ... done (   0.2 sec)
Reading the grid                                   ... done
Mapping shells                                     ... done
Starting the XC term evaluation                    ... done (   0.1 sec)
  promolecular density results
     # of electrons  =    230.993927929
     EX              =   -307.533440168
     EC              =     -9.026208791
     EX+EC           =   -316.559648959
Transforming the Hamiltonian                       ... done (   0.1 sec)
Diagonalizing the Hamiltonian                      ... done (   0.1 sec)
Back transforming the eigenvectors                 ... done (   0.0 sec)
Now organizing SCF variables                       ... done
                      ------------------
                      INITIAL GUESS DONE (   0.8 sec)
                      ------------------
-------------------
DFT GRID GENERATION
-------------------

General Integration Accuracy     IntAcc      ... 4.388
Radial Grid Type                 RadialGrid  ... OptM3 with GC (2021)
Angular Grid (max. ang.)         AngularGrid ... 4 (Lebedev-302)
Angular grid pruning method      GridPruning ... 4 (adaptive)
Weight generation scheme         WeightScheme... Becke
Basis function cutoff            BFCut       ... 1.0000e-10
Integration weight cutoff        WCut        ... 1.0000e-14
Angular grids for H and He will be reduced by one unit
Partially contracted basis set               ... off
Rotationally invariant grid construction     ... off

Total number of grid points                  ...   184093
Total number of batches                      ...     2891
Average number of points per batch           ...       63
Average number of grid points per atom       ...     5753
Time for grid setup =    1.340 sec

--------------------
COSX GRID GENERATION
--------------------

GRIDX 1
-------
General Integration Accuracy     IntAcc      ... 3.816
Radial Grid Type                 RadialGrid  ... OptM3 with GC (2021)
Angular Grid (max. ang.)         AngularGrid ... 1 (Lebedev-50)
Angular grid pruning method      GridPruning ... 4 (adaptive)
Weight generation scheme         WeightScheme... Becke
Basis function cutoff            BFCut       ... 1.0000e-10
Integration weight cutoff        WCut        ... 1.0000e-14
Angular grids for H and He will be reduced by one unit
Partially contracted basis set               ... on
Rotationally invariant grid construction     ... off

Total number of grid points                  ...    22780
Total number of batches                      ...      373
Average number of points per batch           ...       61
Average number of grid points per atom       ...      712
UseSFitting                                  ... on

GRIDX 2
-------
General Integration Accuracy     IntAcc      ... 4.020
Radial Grid Type                 RadialGrid  ... OptM3 with GC (2021)
Angular Grid (max. ang.)         AngularGrid ... 2 (Lebedev-110)
Angular grid pruning method      GridPruning ... 4 (adaptive)
Weight generation scheme         WeightScheme... Becke
Basis function cutoff            BFCut       ... 1.0000e-10
Integration weight cutoff        WCut        ... 1.0000e-14
Angular grids for H and He will be reduced by one unit
Partially contracted basis set               ... on
Rotationally invariant grid construction     ... off

Total number of grid points                  ...    49133
Total number of batches                      ...      784
Average number of points per batch           ...       62
Average number of grid points per atom       ...     1535
UseSFitting                                  ... on

GRIDX 3
-------
General Integration Accuracy     IntAcc      ... 4.338
Radial Grid Type                 RadialGrid  ... OptM3 with GC (2021)
Angular Grid (max. ang.)         AngularGrid ... 3 (Lebedev-194)
Angular grid pruning method      GridPruning ... 4 (adaptive)
Weight generation scheme         WeightScheme... Becke
Basis function cutoff            BFCut       ... 1.0000e-10
Integration weight cutoff        WCut        ... 1.0000e-14
Angular grids for H and He will be reduced by one unit
Partially contracted basis set               ... on
Rotationally invariant grid construction     ... off

Total number of grid points                  ...   112109
Total number of batches                      ...     1770
Average number of points per batch           ...       63
Average number of grid points per atom       ...     3503
UseSFitting                                  ... on

Time for X-Grid setup             =    1.271 sec

--------------
SCF ITERATIONS
--------------
ITER       Energy         Delta-E        Max-DP      RMS-DP      [F,P]     Damp
               ***  Starting incremental Fock matrix formation  ***
  0  -4592.0008638022   0.000000000000 0.08775134  0.00093490  0.2332888 0.7000
  1  -4592.2833483915  -0.282484589337 0.13627041  0.00094967  0.1560085 0.7000
                               ***Turning on DIIS***
  2  -4592.4285040788  -0.145155687282 0.09691768  0.00060122  0.1091655 0.7000
  3  -4592.5083338377  -0.079829758976 0.13180354  0.00093187  0.0772175 0.0000
  4  -4592.6973615421  -0.189027704311 0.08267987  0.00051515  0.0146031 0.0000
  5  -4592.7028854159  -0.005523873810 0.01366897  0.00010532  0.0117208 0.0000
  6  -4592.7040417004  -0.001156284515 0.00234850  0.00004462  0.0029228 0.0000
  7  -4592.7042343271  -0.000192626710 0.00141176  0.00002176  0.0013671 0.0000
  8  -4592.7042983793  -0.000064052238 0.00149245  0.00001583  0.0013481 0.0000
  9  -4592.7043338808  -0.000035501504 0.00282792  0.00002247  0.0008506 0.0000
               *** Restarting incremental Fock matrix formation ***
                                   *** Resetting DIIS ***
 10  -4592.7043396579  -0.000005777076 0.00164474  0.00001534  0.0007630 0.0000
 11  -4592.7043101310   0.000029526868 0.00033782  0.00000392  0.0024556 0.0000
 12  -4592.7043453883  -0.000035257272 0.00065085  0.00000610  0.0009745 0.0000
 13  -4592.7043528461  -0.000007457785 0.00047630  0.00000404  0.0002865 0.0000
 14  -4592.7043554947  -0.000002648624 0.00034118  0.00000275  0.0001857 0.0000
 15  -4592.7043561540  -0.000000659263 0.00022892  0.00000184  0.0001413 0.0000
 16  -4592.7043563057  -0.000000151675 0.00023611  0.00000163  0.0001086 0.0000
                 **** Energy Check signals convergence ****

               *****************************************************
               *                     SUCCESS                       *
               *           SCF CONVERGED AFTER  17 CYCLES          *
               *****************************************************

Old exchange energy                            =    -61.753920686 Eh
New exchange energy                            =    -61.753900751 Eh
Exchange energy change after final integration =      0.000019935 Eh
Total energy after final integration           =  -4592.704336562 Eh
Final COS-X integration done in                =    12.615 sec

----------------
TOTAL SCF ENERGY
----------------

Total Energy       :        -4592.70433656 Eh         -124973.83855 eV

Components:
Nuclear Repulsion  :         3211.67918200 Eh           87394.23358 eV
Electronic Energy  :        -7804.38351856 Eh         -212368.07212 eV
One Electron Energy:       -12787.06777648 Eh         -347953.80383 eV
Two Electron Energy:         4982.68425791 Eh          135585.73170 eV
Max COSX asymmetry :            0.00000279 Eh               0.00008 eV

Virial components:
Potential Energy   :        -9173.67494620 Eh         -249628.38615 eV
Kinetic Energy     :         4580.97060963 Eh          124654.54760 eV
Virial Ratio       :            2.00256141


DFT components:
N(Alpha)           :      116.999795077464 electrons
N(Beta)            :      115.999792575206 electrons
N(Total)           :      232.999587652670 electrons
E(X)               :     -245.459095865092 Eh       
E(C)               :      -10.623533619798 Eh       
E(XC)              :     -256.082629484890 Eh       
DFET-embed. en.    :        0.000000000000 Eh       

---------------
SCF CONVERGENCE
---------------

  Last Energy change         ...   -1.9211e-07  Tolerance :   1.0000e-06
  Last MAX-Density change    ...    0.0000e+00  Tolerance :   1.0000e-05
  Last RMS-Density change    ...    0.0000e+00  Tolerance :   1.0000e-06
  Last DIIS Error            ...    2.3147e-05  Tolerance :   1.0000e-06

             **** THE GBW FILE WAS UPDATED (input_43.gbw) ****
             **** DENSITY input_43.scfp WAS UPDATED ****
             **** ENERGY FILE WAS UPDATED (input_43.en.tmp) ****
----------------------
UHF SPIN CONTAMINATION
----------------------

Warning: in a DFT calculation there is little theoretical justification to 
         calculate <S**2> as in Hartree-Fock theory. We will do it anyways
         but you should keep in mind that the values have only limited relevance

Expectation value of <S**2>     :     0.764838
Ideal value S*(S+1) for S=0.5   :     0.750000
Deviation                       :     0.014838

             **** THE GBW FILE WAS UPDATED (input_43.gbw) ****
             **** DENSITY input_43.scfp WAS UPDATED ****
----------------
ORBITAL ENERGIES
----------------
                 SPIN UP ORBITALS
  NO   OCC          E(Eh)            E(eV) 
   0   1.0000    -196.640302     -5350.8547 
   1   1.0000     -88.680076     -2413.1076 
   2   1.0000     -88.678523     -2413.0653 
   3   1.0000     -88.675049     -2412.9708 
   4   1.0000     -88.674498     -2412.9558 
   5   1.0000     -88.613584     -2411.2982 
   6   1.0000     -88.612958     -2411.2812 
   7   1.0000     -88.611367     -2411.2379 
   8   1.0000     -88.610943     -2411.2263 
   9   1.0000     -22.016110      -599.0888 
  10   1.0000     -18.857383      -513.1355 
  11   1.0000     -18.522938      -504.0348 
  12   1.0000     -18.517158      -503.8775 
  13   1.0000     -18.517121      -503.8765 
  14   1.0000     -10.023029      -272.7405 
  15   1.0000     -10.019097      -272.6335 
  16   1.0000     -10.017287      -272.5842 
  17   1.0000     -10.015387      -272.5325 
  18   1.0000     -10.007711      -272.3237 
  19   1.0000     -10.005847      -272.2729 
  20   1.0000      -9.993598      -271.9396 
  21   1.0000      -9.992802      -271.9180 
  22   1.0000      -9.990381      -271.8521 
  23   1.0000      -9.989890      -271.8387 
  24   1.0000      -7.733035      -210.4266 
  25   1.0000      -7.731775      -210.3923 
  26   1.0000      -7.729048      -210.3181 
  27   1.0000      -7.728670      -210.3078 
  28   1.0000      -7.667914      -208.6546 
  29   1.0000      -7.667314      -208.6382 
  30   1.0000      -7.665851      -208.5984 
  31   1.0000      -7.665522      -208.5895 
  32   1.0000      -5.698313      -155.0590 
  33   1.0000      -5.697037      -155.0243 
  34   1.0000      -5.694546      -154.9565 
  35   1.0000      -5.694280      -154.9492 
  36   1.0000      -5.693898      -154.9388 
  37   1.0000      -5.693226      -154.9206 
  38   1.0000      -5.690298      -154.8409 
  39   1.0000      -5.689859      -154.8289 
  40   1.0000      -5.687744      -154.7714 
  41   1.0000      -5.686498      -154.7375 
  42   1.0000      -5.683823      -154.6647 
  43   1.0000      -5.683456      -154.6547 
  44   1.0000      -5.632753      -153.2750 
  45   1.0000      -5.632156      -153.2587 
  46   1.0000      -5.630703      -153.2192 
  47   1.0000      -5.630366      -153.2100 
  48   1.0000      -5.626344      -153.1006 
  49   1.0000      -5.625927      -153.0893 
  50   1.0000      -5.625764      -153.0848 
  51   1.0000      -5.625315      -153.0726 
  52   1.0000      -5.624295      -153.0449 
  53   1.0000      -5.623947      -153.0354 
  54   1.0000      -5.623823      -153.0320 
  55   1.0000      -5.623477      -153.0226 
  56   1.0000      -2.409798       -65.5739 
  57   1.0000      -1.451160       -39.4881 
  58   1.0000      -1.439573       -39.1728 
  59   1.0000      -1.438499       -39.1435 
  60   1.0000      -0.644044       -17.5253 
  61   1.0000      -0.643902       -17.5215 
  62   1.0000      -0.618426       -16.8282 
  63   1.0000      -0.594223       -16.1696 
  64   1.0000      -0.593681       -16.1549 
  65   1.0000      -0.575469       -15.6593 
  66   1.0000      -0.574687       -15.6380 
  67   1.0000      -0.491848       -13.3839 
  68   1.0000      -0.490013       -13.3339 
  69   1.0000      -0.486752       -13.2452 
  70   1.0000      -0.485372       -13.2077 
  71   1.0000      -0.422469       -11.4960 
  72   1.0000      -0.419605       -11.4180 
  73   1.0000      -0.411407       -11.1950 
  74   1.0000      -0.405826       -11.0431 
  75   1.0000      -0.374866       -10.2006 
  76   1.0000      -0.371795       -10.1171 
  77   1.0000      -0.292057        -7.9473 
  78   1.0000      -0.291055        -7.9200 
  79   1.0000      -0.279957        -7.6180 
  80   1.0000      -0.278737        -7.5848 
  81   1.0000      -0.259996        -7.0748 
  82   1.0000      -0.254484        -6.9249 
  83   1.0000      -0.239694        -6.5224 
  84   1.0000      -0.236842        -6.4448 
  85   1.0000      -0.196485        -5.3466 
  86   1.0000      -0.194997        -5.3061 
  87   1.0000      -0.190014        -5.1705 
  88   1.0000      -0.186804        -5.0832 
  89   1.0000      -0.183416        -4.9910 
  90   1.0000      -0.182319        -4.9611 
  91   1.0000      -0.178242        -4.8502 
  92   1.0000      -0.154149        -4.1946 
  93   1.0000      -0.150677        -4.1001 
  94   1.0000      -0.149754        -4.0750 
  95   1.0000      -0.137848        -3.7510 
  96   1.0000      -0.133313        -3.6276 
  97   1.0000      -0.097883        -2.6635 
  98   1.0000      -0.096950        -2.6381 
  99   1.0000      -0.088343        -2.4039 
 100   1.0000      -0.085286        -2.3208 
 101   1.0000      -0.080389        -2.1875 
 102   1.0000      -0.079259        -2.1568 
 103   1.0000      -0.069795        -1.8992 
 104   1.0000      -0.050038        -1.3616 
 105   1.0000      -0.038784        -1.0554 
 106   1.0000      -0.038090        -1.0365 
 107   1.0000      -0.035932        -0.9778 
 108   1.0000      -0.032083        -0.8730 
 109   1.0000      -0.013357        -0.3635 
 110   1.0000      -0.004400        -0.1197 
 111   1.0000      -0.003587        -0.0976 
 112   1.0000       0.005894         0.1604 
 113   1.0000       0.010412         0.2833 
 114   1.0000       0.016158         0.4397 
 115   1.0000       0.033416         0.9093 
 116   1.0000       0.059562         1.6208 
 117   0.0000       0.186737         5.0814 
 118   0.0000       0.192888         5.2488 
 119   0.0000       0.195840         5.3291 
 120   0.0000       0.196701         5.3525 
 121   0.0000       0.211171         5.7462 
 122   0.0000       0.212400         5.7797 
 123   0.0000       0.217928         5.9301 
 124   0.0000       0.225198         6.1280 
 125   0.0000       0.226871         6.1735 
 126   0.0000       0.233420         6.3517 
 127   0.0000       0.236417         6.4332 
 128   0.0000       0.240099         6.5334 
 129   0.0000       0.242242         6.5918 
 130   0.0000       0.244628         6.6567 
 131   0.0000       0.249242         6.7822 
 132   0.0000       0.250557         6.8180 
 133   0.0000       0.253055         6.8860 
 134   0.0000       0.256001         6.9662 
 135   0.0000       0.262793         7.1510 
 136   0.0000       0.271302         7.3825 
 137   0.0000       0.275397         7.4939 
 138   0.0000       0.277023         7.5382 
 139   0.0000       0.282169         7.6782 
 140   0.0000       0.284195         7.7333 
 141   0.0000       0.286136         7.7862 
 142   0.0000       0.291357         7.9282 
 143   0.0000       0.292718         7.9653 
 144   0.0000       0.301468         8.2034 
 145   0.0000       0.305484         8.3126 
 146   0.0000       0.311023         8.4634 
 147   0.0000       0.318976         8.6798 
 148   0.0000       0.328675         8.9437 
 149   0.0000       0.330970         9.0061 
 150   0.0000       0.347573         9.4579 
 151   0.0000       0.360506         9.8099 
 152   0.0000       0.374086        10.1794 
 153   0.0000       0.374783        10.1984 
 154   0.0000       0.392305        10.6752 
 155   0.0000       0.394818        10.7435 
 156   0.0000       0.395429        10.7602 
 157   0.0000       0.397085        10.8052 
 158   0.0000       0.402634        10.9562 
 159   0.0000       0.413096        11.2409 
 160   0.0000       0.423681        11.5289 
 161   0.0000       0.423867        11.5340 
 162   0.0000       0.426514        11.6060 
 163   0.0000       0.429197        11.6791 
 164   0.0000       0.442257        12.0344 
 165   0.0000       0.452220        12.3055 
 166   0.0000       0.454563        12.3693 
 167   0.0000       0.455357        12.3909 
 168   0.0000       0.460628        12.5343 
 169   0.0000       0.462568        12.5871 
 170   0.0000       0.470991        12.8163 
 171   0.0000       0.475869        12.9491 
 172   0.0000       0.477588        12.9958 
 173   0.0000       0.483252        13.1500 
 174   0.0000       0.486439        13.2367 
 175   0.0000       0.495560        13.4849 
 176   0.0000       0.497810        13.5461 
 177   0.0000       0.502048        13.6614 
 178   0.0000       0.507175        13.8009 
 179   0.0000       0.509880        13.8745 
 180   0.0000       0.511706        13.9242 
 181   0.0000       0.515653        14.0316 
 182   0.0000       0.518743        14.1157 
 183   0.0000       0.521776        14.1982 
 184   0.0000       0.536067        14.5871 
 185   0.0000       0.544594        14.8191 
 186   0.0000       0.545770        14.8512 
 187   0.0000       0.548352        14.9214 
 188   0.0000       0.553643        15.0654 
 189   0.0000       0.555136        15.1060 
 190   0.0000       0.560523        15.2526 
 191   0.0000       0.567875        15.4527 
 192   0.0000       0.572126        15.5683 
 193   0.0000       0.573461        15.6047 
 194   0.0000       0.577888        15.7251 
 195   0.0000       0.580537        15.7972 
 196   0.0000       0.582874        15.8608 
 197   0.0000       0.584978        15.9180 
 198   0.0000       0.585849        15.9418 
 199   0.0000       0.592692        16.1280 
 200   0.0000       0.594205        16.1691 
 201   0.0000       0.595809        16.2128 
 202   0.0000       0.604275        16.4432 
 203   0.0000       0.604480        16.4487 
 204   0.0000       0.610647        16.6166 
 205   0.0000       0.613436        16.6925 
 206   0.0000       0.619597        16.8601 
 207   0.0000       0.622761        16.9462 
 208   0.0000       0.625077        17.0092 
 209   0.0000       0.629578        17.1317 
 210   0.0000       0.635576        17.2949 
 211   0.0000       0.640601        17.4316 
 212   0.0000       0.647449        17.6180 
 213   0.0000       0.650248        17.6942 
 214   0.0000       0.652341        17.7511 
 215   0.0000       0.655840        17.8463 
 216   0.0000       0.659631        17.9495 
 217   0.0000       0.661248        17.9935 
 218   0.0000       0.667737        18.1700 
 219   0.0000       0.671241        18.2654 
 220   0.0000       0.680966        18.5300 
 221   0.0000       0.685315        18.6484 
 222   0.0000       0.688171        18.7261 
 223   0.0000       0.709150        19.2969 
 224   0.0000       0.715771        19.4771 
 225   0.0000       0.728646        19.8275 
 226   0.0000       0.734350        19.9827 
 227   0.0000       0.746907        20.3244 
 228   0.0000       0.751744        20.4560 
 229   0.0000       0.757739        20.6191 
 230   0.0000       0.768033        20.8992 
 231   0.0000       0.773107        21.0373 
 232   0.0000       0.778215        21.1763 
 233   0.0000       0.797783        21.7088 
 234   0.0000       0.801187        21.8014 
 235   0.0000       0.838273        22.8106 
 236   0.0000       0.855843        23.2887 
 237   0.0000       0.864711        23.5300 
 238   0.0000       0.873258        23.7625 
 239   0.0000       0.886653        24.1271 
 240   0.0000       0.892411        24.2837 
 241   0.0000       0.904511        24.6130 
 242   0.0000       0.910947        24.7881 
 243   0.0000       0.913833        24.8667 
 244   0.0000       0.920520        25.0486 
 245   0.0000       0.922662        25.1069 
 246   0.0000       0.929725        25.2991 
 247   0.0000       0.946634        25.7592 
 248   0.0000       0.958237        26.0750 
 249   0.0000       0.967172        26.3181 
 250   0.0000       0.976878        26.5822 
 251   0.0000       0.979272        26.6473 
 252   0.0000       0.985697        26.8222 
 253   0.0000       0.987085        26.8600 
 254   0.0000       0.995965        27.1016 
 255   0.0000       0.998655        27.1748 
 256   0.0000       1.001611        27.2552 
 257   0.0000       1.008014        27.4295 
 258   0.0000       1.015355        27.6292 
 259   0.0000       1.031336        28.0641 
 260   0.0000       1.055752        28.7285 
 261   0.0000       1.058798        28.8114 
 262   0.0000       1.060249        28.8509 
 263   0.0000       1.062311        28.9070 
 264   0.0000       1.078745        29.3542 
 265   0.0000       1.088111        29.6090 
 266   0.0000       1.099801        29.9271 
 267   0.0000       1.113840        30.3091 
 268   0.0000       1.118432        30.4341 
 269   0.0000       1.123860        30.5818 
 270   0.0000       1.125674        30.6311 
 271   0.0000       1.129929        30.7469 
 272   0.0000       1.130952        30.7748 
 273   0.0000       1.135131        30.8885 
 274   0.0000       1.139001        30.9938 
 275   0.0000       1.149516        31.2799 
 276   0.0000       1.154613        31.4186 
 277   0.0000       1.158638        31.5281 
 278   0.0000       1.179796        32.1039 
 279   0.0000       1.194222        32.4964 
 280   0.0000       1.196537        32.5594 
 281   0.0000       1.238151        33.6918 
 282   0.0000       1.242088        33.7989 
 283   0.0000       1.271883        34.6097 
 284   0.0000       1.274753        34.6878 
 285   0.0000       1.288769        35.0692 
 286   0.0000       1.293272        35.1917 
 287   0.0000       1.312058        35.7029 
 288   0.0000       1.315361        35.7928 
 289   0.0000       1.347625        36.6707 
 290   0.0000       1.364725        37.1361 
 291   0.0000       1.373746        37.3815 
 292   0.0000       1.383758        37.6540 
 293   0.0000       1.412230        38.4287 
 294   0.0000       1.419807        38.6349 
 295   0.0000       1.429538        38.8997 
 296   0.0000       1.441271        39.2190 
 297   0.0000       1.441411        39.2228 
 298   0.0000       1.462416        39.7944 
 299   0.0000       1.470976        40.0273 
 300   0.0000       1.472389        40.0657 
 301   0.0000       1.480752        40.2933 
 302   0.0000       1.484166        40.3862 
 303   0.0000       1.488662        40.5086 
 304   0.0000       1.492543        40.6141 
 305   0.0000       1.514421        41.2095 
 306   0.0000       1.519269        41.3414 
 307   0.0000       1.528365        41.5889 
 308   0.0000       1.551865        42.2284 
 309   0.0000       1.554014        42.2869 
 310   0.0000       1.565985        42.6126 
 311   0.0000       1.566288        42.6209 
 312   0.0000       1.604425        43.6586 
 313   0.0000       1.607646        43.7463 
 314   0.0000       1.616063        43.9753 
 315   0.0000       1.620110        44.0854 
 316   0.0000       1.627336        44.2821 
 317   0.0000       1.640326        44.6355 
 318   0.0000       1.655640        45.0523 
 319   0.0000       1.659203        45.1492 
 320   0.0000       1.660325        45.1797 
 321   0.0000       1.675515        45.5931 
 322   0.0000       1.676571        45.6218 
 323   0.0000       1.695537        46.1379 
 324   0.0000       1.711560        46.5739 
 325   0.0000       1.720782        46.8249 
 326   0.0000       1.725299        46.9478 
 327   0.0000       1.742126        47.4057 
 328   0.0000       1.744025        47.4573 
 329   0.0000       1.751010        47.6474 
 330   0.0000       1.759465        47.8775 
 331   0.0000       1.770015        48.1645 
 332   0.0000       1.772996        48.2457 
 333   0.0000       1.785190        48.5775 
 334   0.0000       1.790779        48.7296 
 335   0.0000       1.801077        49.0098 
 336   0.0000       1.811225        49.2859 
 337   0.0000       1.822510        49.5930 
 338   0.0000       1.832886        49.8754 
 339   0.0000       1.834925        49.9309 
 340   0.0000       1.840308        50.0773 
 341   0.0000       1.854200        50.4553 
 342   0.0000       1.855032        50.4780 
 343   0.0000       1.859419        50.5974 
 344   0.0000       1.861841        50.6633 
 345   0.0000       1.872697        50.9587 
 346   0.0000       1.874743        51.0144 
 347   0.0000       1.911170        52.0056 
 348   0.0000       1.919366        52.2286 
 349   0.0000       1.924925        52.3799 
 350   0.0000       1.932701        52.5915 
 351   0.0000       1.943137        52.8755 
 352   0.0000       1.948978        53.0344 
 353   0.0000       1.957670        53.2709 
 354   0.0000       1.964293        53.4511 
 355   0.0000       1.967373        53.5349 
 356   0.0000       1.968398        53.5628 
 357   0.0000       1.997259        54.3482 
 358   0.0000       2.007011        54.6135 
 359   0.0000       2.024191        55.0810 
 360   0.0000       2.036338        55.4116 
 361   0.0000       2.052164        55.8422 
 362   0.0000       2.059970        56.0546 
 363   0.0000       2.076994        56.5179 
 364   0.0000       2.078879        56.5692 
 365   0.0000       2.089334        56.8537 
 366   0.0000       2.100076        57.1460 
 367   0.0000       2.128020        57.9064 
 368   0.0000       2.130815        57.9824 
 369   0.0000       2.145860        58.3918 
 370   0.0000       2.154267        58.6206 
 371   0.0000       2.164245        58.8921 
 372   0.0000       2.170567        59.0641 
 373   0.0000       2.195783        59.7503 
 374   0.0000       2.203311        59.9551 
 375   0.0000       2.207730        60.0754 
 376   0.0000       2.216337        60.3096 
 377   0.0000       2.220041        60.4104 
 378   0.0000       2.224629        60.5352 
 379   0.0000       2.227352        60.6093 
 380   0.0000       2.233481        60.7761 
 381   0.0000       2.238304        60.9074 
 382   0.0000       2.242406        61.0190 
 383   0.0000       2.256936        61.4144 
 384   0.0000       2.266844        61.6840 
 385   0.0000       2.280956        62.0680 
 386   0.0000       2.288919        62.2847 
 387   0.0000       2.297819        62.5268 
 388   0.0000       2.299804        62.5808 
 389   0.0000       2.321806        63.1795 
 390   0.0000       2.326878        63.3176 
 391   0.0000       2.341591        63.7179 
 392   0.0000       2.349545        63.9344 
 393   0.0000       2.353589        64.0444 
 394   0.0000       2.394367        65.1540 
 395   0.0000       2.400979        65.3340 
 396   0.0000       2.402488        65.3750 
 397   0.0000       2.410723        65.5991 
 398   0.0000       2.414606        65.7048 
 399   0.0000       2.428286        66.0770 
 400   0.0000       2.437103        66.3170 
 401   0.0000       2.481771        67.5324 
 402   0.0000       2.485396        67.6311 
 403   0.0000       2.502216        68.0887 
 404   0.0000       2.513771        68.4032 
 405   0.0000       2.522169        68.6317 
 406   0.0000       2.527444        68.7753 
 407   0.0000       2.536014        69.0085 
 408   0.0000       2.545433        69.2648 
 409   0.0000       2.549998        69.3890 
 410   0.0000       2.551831        69.4389 
 411   0.0000       2.572791        70.0092 
 412   0.0000       2.590701        70.4966 
 413   0.0000       2.599597        70.7386 
 414   0.0000       2.611257        71.0559 
 415   0.0000       2.624313        71.4112 
 416   0.0000       2.626492        71.4705 
 417   0.0000       2.630140        71.5697 
 418   0.0000       2.639938        71.8364 
 419   0.0000       2.658700        72.3469 
 420   0.0000       2.664294        72.4991 
 421   0.0000       2.666862        72.5690 
 422   0.0000       2.695425        73.3462 
 423   0.0000       2.703958        73.5785 
 424   0.0000       2.742002        74.6137 
 425   0.0000       2.748848        74.7999 
 426   0.0000       2.773555        75.4723 
 427   0.0000       2.778764        75.6140 
 428   0.0000       2.788983        75.8921 
 429   0.0000       2.801564        76.2344 
 430   0.0000       2.811546        76.5061 
 431   0.0000       2.819071        76.7108 
 432   0.0000       2.854507        77.6751 
 433   0.0000       2.857204        77.7485 
 434   0.0000       2.875001        78.2328 
 435   0.0000       2.887749        78.5796 
 436   0.0000       2.893135        78.7262 
 437   0.0000       2.906203        79.0818 
 438   0.0000       2.910996        79.2122 
 439   0.0000       2.911773        79.2334 
 440   0.0000       2.917647        79.3932 
 441   0.0000       2.924587        79.5821 
 442   0.0000       2.928452        79.6872 
 443   0.0000       2.950119        80.2768 
 444   0.0000       2.965122        80.6851 
 445   0.0000       3.012473        81.9736 
 446   0.0000       3.025932        82.3398 
 447   0.0000       3.039633        82.7126 
 448   0.0000       3.044299        82.8396 
 449   0.0000       3.064876        83.3995 
 450   0.0000       3.066088        83.4325 
 451   0.0000       3.166248        86.1580 
 452   0.0000       3.178861        86.5012 
 453   0.0000       3.311036        90.0979 
 454   0.0000       3.325390        90.4885 
 455   0.0000       3.399357        92.5012 
 456   0.0000       3.423468        93.1573 
 457   0.0000       3.436719        93.5179 
 458   0.0000       3.444884        93.7401 
 459   0.0000       3.452791        93.9552 
 460   0.0000       3.464981        94.2869 
 461   0.0000       3.470526        94.4378 
 462   0.0000       3.499447        95.2248 
 463   0.0000       3.519367        95.7669 
 464   0.0000       3.528834        96.0245 
 465   0.0000       3.577165        97.3396 
 466   0.0000       3.577770        97.3561 
 467   0.0000       3.598190        97.9117 
 468   0.0000       3.602871        98.0391 
 469   0.0000       3.801789       103.4519 
 470   0.0000       3.844061       104.6022 
 471   0.0000       3.861209       105.0688 
 472   0.0000       3.994475       108.6952 
 473   0.0000       4.215734       114.7160 
 474   0.0000       4.542443       123.6062 
 475   0.0000       4.559441       124.0687 
 476   0.0000       4.562814       124.1605 
 477   0.0000       4.590953       124.9262 
 478   0.0000       4.619116       125.6925 
 479   0.0000       4.619500       125.7030 
 480   0.0000       5.202178       141.5585 
 481   0.0000       7.008000       190.6974 
 482   0.0000       7.055189       191.9815 
 483   0.0000       7.058890       192.0822 
 484   0.0000      18.723358       509.4885 
 485   0.0000      18.766433       510.6606 
 486   0.0000      19.002238       517.0772 
 487   0.0000      19.018371       517.5162 
 488   0.0000      19.053710       518.4778 
 489   0.0000      19.059813       518.6439 
 490   0.0000      19.251722       523.8660 
[...]
Total number of batches                      ...      237
Average number of points per batch           ...       58
Average number of grid points per atom       ...      437

Memory available               ... 870.3 MB
Memory needed per perturbation ...  23.5 MB
Perturbations treated per batch... 3
Number of batches              ... 1
     CP-SCF ITERATION   0:   4.4358e-02 (   2.9 sec   0/  3 done)
     CP-SCF ITERATION   1:   1.7116e-03 (   3.0 sec   0/  3 done)
     CP-SCF ITERATION   2:   4.2350e-04 (   3.0 sec   3/  3 done)
                    *** THE CP-SCF HAS CONVERGED ***

Forming final perturbed densities           ... done
Transforming perturbed density to AO basis  ... done

 Raw HFC matrix (all values in MHz): 
 -----------------------------------
                -0.3633               0.0912              -0.4569
                 0.0908              -0.4714              -0.2968
                -0.4572              -0.2973               0.7081

 A(FC)          -0.0414              -0.0414              -0.0414
 A(SD)          -0.4799              -0.5144               0.9943
 A(ORB+DIA)      0.0030               0.0029              -0.0084    A(PC) =  -0.0008
 A(ORB)          0.0031               0.0029              -0.0086    A(PC) =  -0.0009
 A(DIA)         -0.0000              -0.0001               0.0002    A(PC) =   0.0000
             ----------           ----------           ----------
 A(Tot)         -0.5182              -0.5530               0.9445    A(iso)=   -0.0422
 Orientation: 
  X           0.7801221            0.5280857           -0.3354625
  Y          -0.6089732            0.7638599           -0.2137047
  Z           0.1433920            0.3710034            0.9174940

Notes:  (1) The A matrix conforms to the "SAI" spin Hamiltonian convention.
        (2) Tensor is right-handed.

 Raw EFG matrix (all values in a.u.**-3):
 -----------------------------------
             0.0528      -0.1834      -0.0812
            -0.1834       0.0487       0.0801
            -0.0812       0.0801      -0.1015

 V(El)       0.5700       0.4182      -0.9882
 V(Nuc)     -0.7027      -0.5548       1.2575
         ----------   ----------   ----------
 V(Tot)     -0.1327      -0.1366       0.2693 
 Orientation: 
  X       0.6936058   -0.2387819   -0.6796280
  Y       0.7192115    0.1764155    0.6720212
  Z      -0.0405696   -0.9549140    0.2940975

Note: Tensor is right-handed


 Quadrupole tensor eigenvalues (in MHz;Q= 0.0029 I=  1.0)
  e**2qQ            =     0.180803 MHz 
  e**2qQ/(4I*(2I-1))=     0.045201 MHz 
  eta               =     0.014624
  NOTE: the diagonal representation of the SH term I*Q*I = e**2qQ/(4I(2I-1))*[-(1-eta),-(1+eta),2]

 RHO(0)=      0.437079692 a.u.**-3

 -----------------------------------------------------------
 Nucleus  31H : A:ISTP=    1 I=  0.5 P=533.5514 MHz/au**3
                Q:ISTP=    2 I=  1.0 Q=  0.0029 barn     
 -----------------------------------------------------------
 Solving for nuclear perturbation:
Forming RHS of the CP-SCF equations         ... 
Calc. nucleus orbit integrals (SHARK)       ... done

------------------------------------------------------------------------------
                           ORCA CP-SCF CALCULATION
------------------------------------------------------------------------------

Input orbitals are from        ... input_43.gbw
Input Perturbation             ... input_43.pin.tmp
Wavefunction output            ... input_43.pout.tmp
Perturbation mode              ... Imaginary perturbation
Solver                         ... POPLE
Max. number of iterations      ... 64
Convergence tolerance          ... 1.000e-03
Integral handling              ... Direct
DFT GridXC                     ... 1
COSX GridX                     ... 1
COSX IntAccX                   ... 3.067
COSX Algorithm                 ... Auto
Number of perturbations        ... 3
Number of operators            ... 2
Orbital ranges used for CP-SCF:
 Operator 0:  Orbitals   0...116  to 117...516
 Operator 1:  Orbitals   0...115  to 116...516
Variables per perturbation     ... 93316
DFT calculation                         ... on
XC functional terms                     ... off
Hybrid DFT                              ... on
   Exchange mixing (SCF)                ...  0.200
   Exchange mixing (CP-SCF)             ...  0.200
   GGA exch. scaling(SCF)               ...  0.720
   GGA exch. scaling (CP-SCF)           ...  0.720
   GGA corr. scaling (SCF)              ...  0.810
   GGA corr. scaling (CP-SCF)           ...  0.810

CP-SCF GRID
-----------

General Integration Accuracy     IntAcc      ... 3.467
Radial Grid Type                 RadialGrid  ... OptM3 with GC (2021)
Angular Grid (max. ang.)         AngularGrid ... 1 (Lebedev-50)
Angular grid pruning method      GridPruning ... 4 (adaptive)
Weight generation scheme         WeightScheme... Becke
Basis function cutoff            BFCut       ... 1.0000e-10
Integration weight cutoff        WCut        ... 1.0000e-14
Angular grids for H and He will be reduced by one unit
Partially contracted basis set               ... off
Rotationally invariant grid construction     ... off

Total number of grid points                  ...    31383
Total number of batches                      ...      506
Average number of points per batch           ...       62
Average number of grid points per atom       ...      981

CP-SCF GRIDX
------------

General Integration Accuracy     IntAcc      ... 3.067
Radial Grid Type                 RadialGrid  ... OptM3 with GC (2021)
Angular Grid (max. ang.)         AngularGrid ... 1 (Lebedev-50)
Angular grid pruning method      GridPruning ... 4 (adaptive)
Weight generation scheme         WeightScheme... Becke
Basis function cutoff            BFCut       ... 1.0000e-10
Integration weight cutoff        WCut        ... 1.0000e-14
Angular grids for H and He will be reduced by one unit
Partially contracted basis set               ... on
Rotationally invariant grid construction     ... off

Total number of grid points                  ...    13980
Total number of batches                      ...      237
Average number of points per batch           ...       58
Average number of grid points per atom       ...      437

Memory available               ... 868.7 MB
Memory needed per perturbation ...  23.5 MB
Perturbations treated per batch... 3
Number of batches              ... 1
     CP-SCF ITERATION   0:   4.3027e-02 (   2.9 sec   0/  3 done)
     CP-SCF ITERATION   1:   1.1904e-03 (   2.9 sec   1/  3 done)
     CP-SCF ITERATION   2:   2.1810e-04 (   2.4 sec   3/  3 done)
                    *** THE CP-SCF HAS CONVERGED ***

Forming final perturbed densities           ... done
Transforming perturbed density to AO basis  ... done

 Raw HFC matrix (all values in MHz): 
 -----------------------------------
                -0.1720               0.0075              -0.2488
                 0.0070              -0.2740              -0.0066
                -0.2485              -0.0074               0.3981

 A(FC)          -0.0156              -0.0156              -0.0156
 A(SD)          -0.2494              -0.2618               0.5112
 A(ORB+DIA)      0.0014               0.0015              -0.0042    A(PC) =  -0.0004
 A(ORB)          0.0015               0.0016              -0.0043    A(PC) =  -0.0004
 A(DIA)         -0.0001              -0.0000               0.0001    A(PC) =   0.0000
             ----------           ----------           ----------
 A(Tot)         -0.2635              -0.2758               0.4914    A(iso)=   -0.0160
 Orientation: 
  X           0.8673362            0.3526644            0.3512204
  Y           0.3727170           -0.9278766            0.0112698
  Z           0.3298637            0.1211311           -0.9362250

Notes:  (1) The A matrix conforms to the "SAI" spin Hamiltonian convention.
        (2) Tensor is right-handed.

 Raw EFG matrix (all values in a.u.**-3):
 -----------------------------------
            -0.1248       0.0235       0.0784
             0.0235      -0.1155       0.0898
             0.0784       0.0898       0.2403

 V(El)       0.5506       0.8220      -1.3726
 V(Nuc)     -0.6846      -0.9662       1.6508
         ----------   ----------   ----------
 V(Tot)     -0.1340      -0.1442       0.2782 
 Orientation: 
  X       0.5191230    0.8312644   -0.1987734
  Y       0.8000877   -0.5544273   -0.2290633
  Z      -0.3006175   -0.0401241   -0.9529004

Note: Tensor is right-handed


 Quadrupole tensor eigenvalues (in MHz;Q= 0.0029 I=  1.0)
  e**2qQ            =     0.186837 MHz 
  e**2qQ/(4I*(2I-1))=     0.046709 MHz 
  eta               =     0.036646
  NOTE: the diagonal representation of the SH term I*Q*I = e**2qQ/(4I(2I-1))*[-(1-eta),-(1+eta),2]

 RHO(0)=      0.437751764 a.u.**-3

 -----------------------------------------------------------
 Nucleus   0V : A:ISTP=   51 I=  3.5 P=140.5173 MHz/au**3
                Q:ISTP=   51 I=  3.5 Q= -0.0430 barn     
 -----------------------------------------------------------
 Solving for nuclear perturbation:
Forming RHS of the CP-SCF equations         ... 
Calc. nucleus orbit integrals (SHARK)       ... done

------------------------------------------------------------------------------
                           ORCA CP-SCF CALCULATION
------------------------------------------------------------------------------

Input orbitals are from        ... input_43.gbw
Input Perturbation             ... input_43.pin.tmp
Wavefunction output            ... input_43.pout.tmp
Perturbation mode              ... Imaginary perturbation
Solver                         ... POPLE
Max. number of iterations      ... 64
Convergence tolerance          ... 1.000e-03
Integral handling              ... Direct
DFT GridXC                     ... 1
COSX GridX                     ... 1
COSX IntAccX                   ... 3.067
COSX Algorithm                 ... Auto
Number of perturbations        ... 3
Number of operators            ... 2
Orbital ranges used for CP-SCF:
 Operator 0:  Orbitals   0...116  to 117...516
 Operator 1:  Orbitals   0...115  to 116...516
Variables per perturbation     ... 93316
DFT calculation                         ... on
XC functional terms                     ... off
Hybrid DFT                              ... on
   Exchange mixing (SCF)                ...  0.200
   Exchange mixing (CP-SCF)             ...  0.200
   GGA exch. scaling(SCF)               ...  0.720
   GGA exch. scaling (CP-SCF)           ...  0.720
   GGA corr. scaling (SCF)              ...  0.810
   GGA corr. scaling (CP-SCF)           ...  0.810

CP-SCF GRID
-----------

General Integration Accuracy     IntAcc      ... 3.467
Radial Grid Type                 RadialGrid  ... OptM3 with GC (2021)
Angular Grid (max. ang.)         AngularGrid ... 1 (Lebedev-50)
Angular grid pruning method      GridPruning ... 4 (adaptive)
Weight generation scheme         WeightScheme... Becke
Basis function cutoff            BFCut       ... 1.0000e-10
Integration weight cutoff        WCut        ... 1.0000e-14
Angular grids for H and He will be reduced by one unit
Partially contracted basis set               ... off
Rotationally invariant grid construction     ... off

Total number of grid points                  ...    31383
Total number of batches                      ...      506
Average number of points per batch           ...       62
Average number of grid points per atom       ...      981

CP-SCF GRIDX
------------

General Integration Accuracy     IntAcc      ... 3.067
Radial Grid Type                 RadialGrid  ... OptM3 with GC (2021)
Angular Grid (max. ang.)         AngularGrid ... 1 (Lebedev-50)
Angular grid pruning method      GridPruning ... 4 (adaptive)
Weight generation scheme         WeightScheme... Becke
Basis function cutoff            BFCut       ... 1.0000e-10
Integration weight cutoff        WCut        ... 1.0000e-14
Angular grids for H and He will be reduced by one unit
Partially contracted basis set               ... on
Rotationally invariant grid construction     ... off

Total number of grid points                  ...    13980
Total number of batches                      ...      237
Average number of points per batch           ...       58
Average number of grid points per atom       ...      437

Memory available               ... 867.2 MB
Memory needed per perturbation ...  23.5 MB
Perturbations treated per batch... 3
Number of batches              ... 1
     CP-SCF ITERATION   0:   1.1386e+01 (   3.1 sec   0/  3 done)
     CP-SCF ITERATION   1:   1.8442e+00 (   3.0 sec   0/  3 done)
     CP-SCF ITERATION   2:   3.2441e-01 (   3.0 sec   0/  3 done)
     CP-SCF ITERATION   3:   3.8136e-02 (   2.9 sec   0/  3 done)
     CP-SCF ITERATION   4:   8.3565e-03 (   3.0 sec   0/  3 done)
     CP-SCF ITERATION   5:   2.0173e-03 (   3.0 sec   0/  3 done)
     CP-SCF ITERATION   6:   3.1280e-04 (   3.0 sec   3/  3 done)
                    *** THE CP-SCF HAS CONVERGED ***

Forming final perturbed densities           ... done
Transforming perturbed density to AO basis  ... done

 Raw HFC matrix (all values in MHz): 
 -----------------------------------
               -85.8358              40.0613             -18.3963
                40.1227            -279.9877             133.3385
               -18.3568             133.3931            -163.8922

 A(FC)        -165.4697            -165.4697            -165.4697
 A(SD)         100.8102              88.5959            -189.4062
 A(ORB+DIA)     -6.5270              -7.6626             -19.1169    A(PC) = -11.1022
 A(ORB)         -6.5266              -7.6631             -19.1168    A(PC) = -11.1022
 A(DIA)         -0.0004               0.0005              -0.0001    A(PC) =  -0.0000
             ----------           ----------           ----------
 A(Tot)        -71.1865             -84.5364            -373.9928    A(iso)= -176.5719
 Orientation: 
  X          -0.6244179           -0.7666193           -0.1496571
  Y          -0.5020242            0.2471071            0.8288002
  Z          -0.5983929            0.5926491           -0.5391595

Notes:  (1) The A matrix conforms to the "SAI" spin Hamiltonian convention.
        (2) Tensor is right-handed.

 Raw EFG matrix (all values in a.u.**-3):
 -----------------------------------
            -0.1461      -0.0255       0.0799
            -0.0255       0.1672      -0.1980
             0.0799      -0.1980      -0.0211

 V(El)       0.1389      -0.4672       0.3283
 V(Nuc)     -0.2362       0.2628      -0.0267
         ----------   ----------   ----------
 V(Tot)     -0.0972      -0.2044       0.3016 
 Orientation: 
  X       0.6676516   -0.7303924    0.1441120
  Y       0.4863707    0.2813772   -0.8272064
  Z       0.5636355    0.6223775    0.5431034

Note: Tensor is right-handed


 Quadrupole tensor eigenvalues (in MHz;Q=-0.0430 I=  3.5)
  e**2qQ            =    -3.047541 MHz 
  e**2qQ/(4I*(2I-1))=    -0.036280 MHz 
  eta               =     0.355252
  NOTE: the diagonal representation of the SH term I*Q*I = e**2qQ/(4I(2I-1))*[-(1-eta),-(1+eta),2]

 RHO(0)=   8115.216117080 a.u.**-3


--------------------------------------------------------------------------------
----------------------------------------------------------------------------
                           ORCA EULER ANGLE PROGRAM
----------------------------------------------------------------------------

Only g-tensor available        -->  using g-tensor as reference tensor

Reference tensor               ...  g

g-tensor ordering              ...  |g_min> --> |gx>
                                    |g_mid> --> |gy>
                                    |g_max> --> |gz>

A- and EFG-tensor ordering     ...  the axes |Ax>, |Qx>, |Ay>, etc. are assigned
                                    such that the Euler rotation is minimal. You
                                    can find the respective eigenvalues as Ax,
                                    EFGx, Ay, etc. in the tables below.
                                    The relation of |Ax>, |Ay>,  etc. to Amin, Amid, etc.
                                    (as printed in the ORCA EPR/NMR CALCULATION Output)
                                    is obtained in the detailed printout.

Euler rotation around          ...  z - y - z
   First rotation              -->  by alpha around z
   Second rotation             -->  by beta around y'
   Third rotation              -->  by gamma around z''
   Positive / Negative angle   -->  clockwise / counterclockwise rotation

Plot EFG-tensors                    (-)
Plot HFC-tensors                    (-)
Detailed Printout                   (-)

-------------------------------------------------------------------------
          Euler rotation of hyperfine tensor to g-tensor
-------------------------------------------------------------------------

-------------------------------------------------------------------
 Atom  |   Alpha    Beta    Gamma   |   Ax       Ay       Az 
       |          [degrees]         |           [MHz]         
-------------------------------------------------------------------
 19H      -42.4     21.0      1.1      -0.53     0.97    -0.57
 20H     -117.1     23.7     89.3      -0.28     0.48    -0.27
 21H     -174.9     14.0    142.4      -0.12     0.46    -0.12
 22H       -0.2      2.0    -18.5      -0.22     0.45    -0.22
 23H       63.0     19.3    -87.6      -0.26     0.51    -0.25
 24H      148.2     28.6    168.0      -0.47     0.83    -0.50
 26H      110.4     19.1    -84.6      -0.26     0.51    -0.25
 27H       34.1     26.9      9.6      -0.47     0.85    -0.51
 28H      -77.0      0.3     96.1      -0.22     0.45    -0.22
 29H       -5.8      7.9     38.9      -0.12     0.47    -0.12
 30H     -136.0     20.5    178.3      -0.52     0.94    -0.55
 31H      -62.1     23.2     90.1      -0.28     0.49    -0.26
  0V      -77.1      1.1     77.6    -373.99   -84.54   -71.19
-------------------------------------------------------------------


-------------------------------------------------------------------------------
    Euler rotation of Electric Field Gradient (EFG) tensor to g-tensor
-------------------------------------------------------------------------------

-------------------------------------------------------------------
 Atom  |   Alpha    Beta    Gamma  |   EFGx     EFGy     EFGz
       |          [degrees]        |         [a.u.**-3]       
-------------------------------------------------------------------
 19H      -14.0     39.8     39.2     -0.13     0.25    -0.12
 20H      166.6     33.7   -134.4     -0.12    -0.13     0.26
 21H      -89.9      5.8    109.2      0.28    -0.14    -0.14
 22H      115.8      6.6    -80.5     -0.14     0.27    -0.13
 23H      -45.3     46.2     78.7     -0.12    -0.13     0.25
 24H      -14.1     49.7     50.0     -0.12     0.26    -0.13
 26H     -135.4     43.7    105.4     -0.13    -0.14     0.27
 27H      -12.0     42.8    -28.9     -0.14     0.28    -0.13
 28H       51.9      3.7    -86.8     -0.15     0.28    -0.13
 29H      -83.5      4.6     64.8      0.28    -0.14    -0.14
 30H     -170.4     40.1    143.0     -0.14     0.27    -0.13
 31H       20.2     35.3    -51.3     -0.13    -0.14     0.28
  0V      -86.7      4.4     86.8      0.30    -0.20    -0.10
-------------------------------------------------------------------


Maximum memory used throughout the entire EPRNMR-calculation: 221.5 MB

Timings for individual modules:

Sum of individual times         ...     1644.881 sec (=  27.415 min)
GTO integral calculation        ...        1.360 sec (=   0.023 min)   0.1 %
Spin-Orbit-Coupling Matrices    ...        6.738 sec (=   0.112 min)   0.4 %
SCF iterations                  ...      111.851 sec (=   1.864 min)   6.8 %
EPR/NMR calculation             ...     1524.932 sec (=  25.416 min)  92.7 %
                             ****ORCA TERMINATED NORMALLY****
TOTAL RUN TIME: 0 days 0 hours 27 minutes 26 seconds 85 msec
