
                                 *****************
                                 * O   R   C   A *
                                 *****************

                                            #,                                       
                                            ###                                      
                                            ####                                     
                                            #####                                    
                                            ######                                   
                                           ########,                                 
                                     ,,################,,,,,                         
                               ,,#################################,,                 
                          ,,##########################################,,             
                       ,#########################################, ''#####,          
                    ,#############################################,,   '####,        
                  ,##################################################,,,,####,       
                ,###########''''           ''''###############################       
              ,#####''   ,,,,##########,,,,          '''####'''          '####       
            ,##' ,,,,###########################,,,                        '##       
           ' ,,###''''                  '''############,,,                           
         ,,##''                                '''############,,,,        ,,,,,,###''
      ,#''                                            '''#######################'''  
     '                                                          ''''####''''         
             ,#######,   #######,   ,#######,      ##                                
            ,#'     '#,  ##    ##  ,#'     '#,    #''#        ######   ,####,        
            ##       ##  ##   ,#'  ##            #'  '#       #        #'  '#        
            ##       ##  #######   ##           ,######,      #####,   #    #        
            '#,     ,#'  ##    ##  '#,     ,#' ,#      #,         ##   #,  ,#        
             '#######'   ##     ##  '#######'  #'      '#     #####' # '####'        



                  #######################################################
                  #                        -***-                        #
                  #          Department of theory and spectroscopy      #
                  #    Directorship and core code : Frank Neese         #
                  #        Max Planck Institute fuer Kohlenforschung    #
                  #                Kaiser Wilhelm Platz 1               #
                  #                 D-45470 Muelheim/Ruhr               #
                  #                      Germany                        #
                  #                                                     #
                  #                  All rights reserved                #
                  #                        -***-                        #
                  #######################################################


                         Program Version 5.0.4 -  RELEASE  -


 With contributions from (in alphabetic order):
   Daniel Aravena         : Magnetic Suceptibility
   Michael Atanasov       : Ab Initio Ligand Field Theory (pilot matlab implementation)
   Alexander A. Auer      : GIAO ZORA, VPT2 properties, NMR spectrum
   Ute Becker             : Parallelization
   Giovanni Bistoni       : ED, misc. LED, open-shell LED, HFLD
   Martin Brehm           : Molecular dynamics
   Dmytro Bykov           : SCF Hessian
   Vijay G. Chilkuri      : MRCI spin determinant printing, contributions to CSF-ICE
   Dipayan Datta          : RHF DLPNO-CCSD density
   Achintya Kumar Dutta   : EOM-CC, STEOM-CC
   Dmitry Ganyushin       : Spin-Orbit,Spin-Spin,Magnetic field MRCI
   Miquel Garcia          : C-PCM and meta-GGA Hessian, CC/C-PCM, Gaussian charge scheme
   Yang Guo               : DLPNO-NEVPT2, F12-NEVPT2, CIM, IAO-localization
   Andreas Hansen         : Spin unrestricted coupled pair/coupled cluster methods
   Benjamin Helmich-Paris : MC-RPA, TRAH-SCF, COSX integrals
   Lee Huntington         : MR-EOM, pCC
   Robert Izsak           : Overlap fitted RIJCOSX, COSX-SCS-MP3, EOM
   Marcus Kettner         : VPT2
   Christian Kollmar      : KDIIS, OOCD, Brueckner-CCSD(T), CCSD density, CASPT2, CASPT2-K
   Simone Kossmann        : Meta GGA functionals, TD-DFT gradient, OOMP2, MP2 Hessian
   Martin Krupicka        : Initial AUTO-CI
   Lucas Lang             : DCDCAS
   Marvin Lechner         : AUTO-CI (C++ implementation), FIC-MRCC
   Dagmar Lenk            : GEPOL surface, SMD
   Dimitrios Liakos       : Extrapolation schemes; Compound Job, initial MDCI parallelization
   Dimitrios Manganas     : Further ROCIS development; embedding schemes
   Dimitrios Pantazis     : SARC Basis sets
   Anastasios Papadopoulos: AUTO-CI, single reference methods and gradients
   Taras Petrenko         : DFT Hessian,TD-DFT gradient, ASA, ECA, R-Raman, ABS, FL, XAS/XES, NRVS
   Peter Pinski           : DLPNO-MP2, DLPNO-MP2 Gradient
   Christoph Reimann      : Effective Core Potentials
   Marius Retegan         : Local ZFS, SOC
   Christoph Riplinger    : Optimizer, TS searches, QM/MM, DLPNO-CCSD(T), (RO)-DLPNO pert. Triples
   Tobias Risthaus        : Range-separated hybrids, TD-DFT gradient, RPA, STAB
   Michael Roemelt        : Original ROCIS implementation
   Masaaki Saitow         : Open-shell DLPNO-CCSD energy and density
   Barbara Sandhoefer     : DKH picture change effects
   Avijit Sen             : IP-ROCIS
   Kantharuban Sivalingam : CASSCF convergence, NEVPT2, FIC-MRCI
   Bernardo de Souza      : ESD, SOC TD-DFT
   Georgi Stoychev        : AutoAux, RI-MP2 NMR, DLPNO-MP2 response
   Willem Van den Heuvel  : Paramagnetic NMR
   Boris Wezisla          : Elementary symmetry handling
   Frank Wennmohs         : Technical directorship


 We gratefully acknowledge several colleagues who have allowed us to
 interface, adapt or use parts of their codes:
   Stefan Grimme, W. Hujo, H. Kruse, P. Pracht,  : VdW corrections, initial TS optimization,
                  C. Bannwarth, S. Ehlert          DFT functionals, gCP, sTDA/sTD-DF
   Ed Valeev, F. Pavosevic, A. Kumar             : LibInt (2-el integral package), F12 methods
   Garnet Chan, S. Sharma, J. Yang, R. Olivares  : DMRG
   Ulf Ekstrom                                   : XCFun DFT Library
   Mihaly Kallay                                 : mrcc  (arbitrary order and MRCC methods)
   Jiri Pittner, Ondrej Demel                    : Mk-CCSD
   Frank Weinhold                                : gennbo (NPA and NBO analysis)
   Christopher J. Cramer and Donald G. Truhlar   : smd solvation model
   Lars Goerigk                                  : TD-DFT with DH, B97 family of functionals
   V. Asgeirsson, H. Jonsson                     : NEB implementation
   FAccTs GmbH                                   : IRC, NEB, NEB-TS, DLPNO-Multilevel, CI-OPT
                                                   MM, QMMM, 2- and 3-layer-ONIOM, Crystal-QMMM,
                                                   LR-CPCM, SF, NACMEs, symmetry and pop. for TD-DFT,
                                                   nearIR, NL-DFT gradient (VV10), updates on ESD,
                                                   ML-optimized integration grids
   S Lehtola, MJT Oliveira, MAL Marques          : LibXC Library
   Liviu Ungur et al                             : ANISO software


 Your calculation uses the libint2 library for the computation of 2-el integrals
 For citations please refer to: http://libint.valeyev.net

 Your ORCA version has been built with support for libXC version: 5.1.0
 For citations please refer to: https://tddft.org/programs/libxc/

 This ORCA versions uses:
   CBLAS   interface :  Fast vector & matrix operations
   LAPACKE interface :  Fast linear algebra routines
   SCALAPACK package :  Parallel linear algebra routines
   Shared memory     :  Shared parallel matrices
   BLAS/LAPACK       :  OpenBLAS 0.3.15  USE64BITINT DYNAMIC_ARCH NO_AFFINITY Prescott SINGLE_THREADED
        Core in use  :  Prescott
   Copyright (c) 2011-2014, The OpenBLAS Project


================================================================================

----- Orbital basis set information -----
Your calculation utilizes the basis: TZVP 

The basis set includes element-specific modifications.

Your calculation utilizes the basis: CP(PPP) 

----- AuxJ basis set information -----
Your calculation utilizes the auxiliary basis: def2/J
   F. Weigend, Phys. Chem. Chem. Phys. 8, 1057 (2006).

================================================================================
                                        WARNINGS
                       Please study these warnings very carefully!
================================================================================


WARNING: your system is open-shell and RHF/RKS was chosen
  ===> : WILL SWITCH to UHF/UKS


INFO   : the flag for use of the SHARK integral package has been found!

================================================================================
                                       INPUT FILE
================================================================================
NAME = input_43.inp
|  1> ! nofrozencore ReducedPop printbasis
|  2> ! B3LYP TZVP
|  3> 
|  4> %basis
|  5> newgto V "CP(PPP)" end
|  6> end
|  7> 
|  8> %pal
|  9> nprocs 4
| 10> end
| 11> 
| 12> % sym SymThresh 1e-2 end
| 13> * xyz -2 2 
| 14> V 0.3750757364539849 -0.39032681399091285 0.9752421358673979
| 15> S 2.150210704021719 0.9826854561574381 -0.008362850415393627
| 16> S -0.7804577556959552 1.7265511780218512 1.403928655203814
| 17> S 1.0230043851299193 -1.9795911599129261 -0.772660989949377
| 18> S -1.9005332662805565 -1.245574076761011 0.667427833713064
| 19> O 0.9174004872272766 -0.9471824565832292 2.3698717729706633
| 20> C -2.462719508612108 1.2336042449206752 1.6498859751652624
| 21> C -2.9447354427200723 -0.008003614065696907 1.375677465057892
| 22> C 3.0812883451400843 -0.14839040783166488 -0.9981331341887366
| 23> C 2.5909026858572513 -1.3740378952631906 -1.3235268048148399
| 24> S -3.5225808598400814 2.551421110307654 2.371424141906877
| 25> S -4.641603538070841 -0.4609833839933619 1.589095871906812
| 26> S 3.519689013684763 -2.5470860434157894 -2.3696541063544023
| 27> S 4.644718285212772 0.465634241513009 -1.5953001607922348
| 28> C -5.609560736109298 0.5614765665849206 0.40458932923387436
| 29> C 3.452816872295584 -1.6774648286568457 -4.004800743094118
| 30> C -4.617280960624696 2.898187208513815 0.9108937889312779
| 31> C 4.42769727971773 0.6450242163251124 -3.4150435639125303
| 32> C -5.873749946647172 1.9905128303580275 0.7971971804719439
| 33> H -4.06385938224034 3.199000297359303 -0.024759002933207815
| 34> H -5.111268714193764 3.8237473610299837 1.3452719291835629
| 35> H -6.535751481262111 2.445416636734789 0.04243606348167544
| 36> H -6.373471562524196 2.12518040423697 1.7785565588399375
| 37> H -6.44950566277796 -0.032275177776278446 -0.06654836160672237
| 38> H -4.812010631825177 0.6966267687664187 -0.3825855256495168
| 39> C 4.549929766952071 -0.617153556499111 -4.240550412673332
| 40> H 5.027441686087038 1.5065216069348293 -3.771843363692985
| 41> H 3.3608178221677774 0.9307818003829124 -3.4864993050560584
| 42> H 5.5039849682846596 -1.143119263279557 -4.081610807611588
| 43> H 4.514411691192958 -0.3379628640713473 -5.30612510378704
| 44> H 2.4197463983514567 -1.393312168056672 -4.280467398924488
| 45> H 3.7702626834146784 -2.510891536158638 -4.667992393377549
| 46> * 
| 47> 
| 48> % eprnmr
| 49> gtensor true
| 50> Nuclei = all H {aiso,adip,aorb,fgrad,rho}
| 51> Nuclei = all V {aiso,adip,aorb,fgrad,rho}
| 52> end
| 53> 
| 54>                          ****END OF INPUT****
================================================================================

------------------------------------------------------------------------------
                            SYMMETRY HANDLING SETUP
------------------------------------------------------------------------------

------------------
SYMMETRY DETECTION
------------------
The point group will now be determined using a tolerance of 1.0000e-02.
Splitting atom subsets according to nuclear charge, mass and basis set.
Splitting atom subsets according to distance from the molecule's center.
Identifying relative distance patterns of the atoms.
Splitting atom subsets according to atoms' relative distance patterns.
Bring atoms of each subset into input order.
The molecule is neither linear nor planar.
There is at least one atom subset not centered around the molecule's center.
The molecule does not have a center of inversion.
Analyzing the first atom subset for its symmetry.
The subset is an off-center atom pair.
Testing point group C2v.
Test failed.
Testing point group C2.
Test failed.
Testing point group Cs.
Test failed.
Testing point group Cs.
Test failed.
No testing is needed for point group C1.
This point group has been found:    C1
Largest non-degenerate subgroup:    C1


Mass-centered symmetry-perfected Cartesians (point group C1):

Atom          Symmetry-perfected Cartesians (x, y, z; au)
  0       0.709412125653   -0.738348993803    1.844964892274
  1       4.063931065103    1.856268175291   -0.013779155759
  2      -1.474229713084    3.261970670026    2.655065011124
  3       1.933819825972   -3.741623362001   -1.458093324144
  4      -3.590865677401   -2.354532097224    1.263280161099
  5       1.734257380262   -1.790653654431    4.480432964650
  6      -4.653243711666    2.330435967909    3.119856986485
  7      -5.564121819316   -0.015862851300    2.601677998791
  8       5.823412816235   -0.281155444337   -1.884173927585
  9       4.896718220188   -2.597293532311   -2.499078850779
 10      -6.656091405414    4.820748938153    4.483366516798
 11      -8.770737804917   -0.871870560670    3.004980339673
 12       6.651870016712   -4.814033274223   -4.475972951907
 13       8.777867232545    0.879182982402   -3.012656064073
 14     -10.599911818568    1.060298728826    0.766587370183
 15       6.525499983498   -3.170687338080   -7.565952284148
 16      -8.724774794673    5.476041896291    1.723364139395
 17       8.367756966851    1.218180905968   -6.451472729981
 18     -11.099157074021    3.760785902799    1.508508687051
 19      -7.678959574924    6.044496251708   -0.044763393668
 20      -9.658276362430    7.225097105017    2.544219863033
 21     -12.350158674679    4.620429514130    0.082216879407
 22     -12.043494071229    4.015270736550    3.363009151121
 23     -12.187177697548   -0.061729459555   -0.123733836873
 24      -9.092760543391    1.315695597893   -0.720957525055
 25       8.598742892392   -1.166989416993   -8.011454595815
 26       9.501109645240    2.846175039308   -7.125726636204
 27       6.351646974175    1.758184480528   -6.586504511438
 28      10.401645939554   -2.160920558642   -7.711102270414
 29       8.531623456403   -0.639395469164  -10.025098937257
 30       4.573279710703   -2.633716629321   -8.086886767921
 31       7.125385628873   -4.745635567955   -8.819202877487


------------------
SYMMETRY REDUCTION
------------------
ORCA supports only abelian point groups.
It is now checked, if the determined point group is supported:
Point Group ( C1    ) is          ... supported

The point group is C1 - hence turning off symmetry
If this is a round-off problem, please increase the symmetry
        detection tolerance (%method SymThresh)

Storing the symmetry object:
Symmetry file                     ... input_43.sym.tmp
Writing symmetry information      ... done

                       ****************************
                       * Single Point Calculation *
                       ****************************

---------------------------------
CARTESIAN COORDINATES (ANGSTROEM)
---------------------------------
  V      0.375405   -0.390717    0.976313
  S      2.150540    0.982295   -0.007292
  S     -0.780129    1.726161    1.405000
  S      1.023333   -1.979982   -0.771590
  S     -1.900204   -1.245965    0.668499
  O      0.917729   -0.947573    2.370943
  C     -2.462391    1.233214    1.650957
  C     -2.944406   -0.008394    1.376749
  C      3.081617   -0.148781   -0.997062
  C      2.591232   -1.374429   -1.322456
  S     -3.522252    2.551030    2.372495
  S     -4.641275   -0.461374    1.590167
  S      3.520018   -2.547477   -2.368583
  S      4.645047    0.465244   -1.594229
  C     -5.609232    0.561086    0.405661
  C      3.453146   -1.677855   -4.003730
  C     -4.616952    2.897797    0.911965
  C      4.428026    0.644634   -3.413972
  C     -5.873421    1.990122    0.798268
  H     -4.063530    3.198610   -0.023688
  H     -5.110940    3.823357    1.346343
  H     -6.535422    2.445026    0.043507
  H     -6.373143    2.124790    1.779628
  H     -6.449177   -0.032666   -0.065477
  H     -4.811682    0.696236   -0.381514
  C      4.550259   -0.617544   -4.239479
  H      5.027771    1.506131   -3.770772
  H      3.361147    0.930391   -3.485428
  H      5.504314   -1.143510   -4.080540
  H      4.514741   -0.338354   -5.305054
  H      2.420075   -1.393703   -4.279396
  H      3.770592   -2.511282   -4.666921

----------------------------
CARTESIAN COORDINATES (A.U.)
----------------------------
  NO LB      ZA    FRAG     MASS         X           Y           Z
   0 V    23.0000    0    50.940    0.709412   -0.738349    1.844965
   1 S    16.0000    0    32.060    4.063931    1.856268   -0.013779
   2 S    16.0000    0    32.060   -1.474230    3.261971    2.655065
   3 S    16.0000    0    32.060    1.933820   -3.741623   -1.458093
   4 S    16.0000    0    32.060   -3.590866   -2.354532    1.263280
   5 O     8.0000    0    15.999    1.734257   -1.790654    4.480433
   6 C     6.0000    0    12.011   -4.653244    2.330436    3.119857
   7 C     6.0000    0    12.011   -5.564122   -0.015863    2.601678
   8 C     6.0000    0    12.011    5.823413   -0.281155   -1.884174
   9 C     6.0000    0    12.011    4.896718   -2.597294   -2.499079
  10 S    16.0000    0    32.060   -6.656091    4.820749    4.483367
  11 S    16.0000    0    32.060   -8.770738   -0.871871    3.004980
  12 S    16.0000    0    32.060    6.651870   -4.814033   -4.475973
  13 S    16.0000    0    32.060    8.777867    0.879183   -3.012656
  14 C     6.0000    0    12.011  -10.599912    1.060299    0.766587
  15 C     6.0000    0    12.011    6.525500   -3.170687   -7.565952
  16 C     6.0000    0    12.011   -8.724775    5.476042    1.723364
  17 C     6.0000    0    12.011    8.367757    1.218181   -6.451473
  18 C     6.0000    0    12.011  -11.099157    3.760786    1.508509
  19 H     1.0000    0     1.008   -7.678960    6.044496   -0.044763
  20 H     1.0000    0     1.008   -9.658276    7.225097    2.544220
  21 H     1.0000    0     1.008  -12.350159    4.620430    0.082217
  22 H     1.0000    0     1.008  -12.043494    4.015271    3.363009
  23 H     1.0000    0     1.008  -12.187178   -0.061729   -0.123734
  24 H     1.0000    0     1.008   -9.092761    1.315696   -0.720958
  25 C     6.0000    0    12.011    8.598743   -1.166989   -8.011455
  26 H     1.0000    0     1.008    9.501110    2.846175   -7.125727
  27 H     1.0000    0     1.008    6.351647    1.758184   -6.586505
  28 H     1.0000    0     1.008   10.401646   -2.160921   -7.711102
  29 H     1.0000    0     1.008    8.531623   -0.639395  -10.025099
  30 H     1.0000    0     1.008    4.573280   -2.633717   -8.086887
  31 H     1.0000    0     1.008    7.125386   -4.745636   -8.819203

--------------------------------
INTERNAL COORDINATES (ANGSTROEM)
--------------------------------
 V      0   0   0     0.000000000000     0.00000000     0.00000000
 S      1   0   0     2.450254194181     0.00000000     0.00000000
 S      1   2   0     2.449531019687    85.85704984     0.00000000
 S      1   2   3     2.449640388350    83.42453191   145.70723731
 S      1   2   3     2.450427280785   144.87844212    72.39316430
 O      1   2   3     1.596620232452   107.45755768   252.43708612
 C      3   1   2     1.770168434760   103.41306559   160.95442015
 C      7   3   1     1.359823423554   124.27140228   348.52399718
 C      2   1   3     1.768016798147   104.34543228   198.34803396
 C      9   2   1     1.359621601462   121.38206216    14.87174908
 S      7   3   1     1.838631202985   113.75007007   166.73371605
 S      8   7   3     1.769208699211   123.32776302   181.75084768
 S     10   9   2     1.825669283214   122.19911060   178.83570561
 S      9   2   1     1.782679978342   115.40610032   191.82647954
 C     12   8   7     1.839951422567   106.53677747    64.28995742
 C     13  10   9     1.853218137213   100.70304041   290.98655803
 C     11   7   3     1.857892340661    99.49280683   111.59961518
 C     14   9   2     1.841397548898   105.14349247   248.69716257
 C     15  12   8     1.505350958082   116.86911531   281.59723401
 H     17  11   7     1.127922916145   114.38035373   302.69785923
 H     17  11   7     1.135504233956    96.18521005   189.41857482
 H     19  15  12     1.102201364819   108.57906233   185.13291335
 H     19  15  12     1.109469818580   115.14858598   304.47695079
 H     15  12   8     1.131379395914   111.53164499   140.86864593
 H     15  12   8     1.128714312018    98.26679736    28.53723382
 C     18  14   9     1.513107751780   116.63911462   280.06878758
 H     18  14   9     1.108682643556   109.26781006   146.93832510
 H     18  14   9     1.106794965986   101.68673244    33.55479942
 H     26  18  14     1.100964599774   112.93883455   304.48676741
 H     26  18  14     1.102115419902   108.27429212   186.47229369
 H     16  13  10     1.106331525266   111.96679535   308.45941283
 H     16  13  10     1.111393307871    99.45715281   194.45839454

---------------------------
INTERNAL COORDINATES (A.U.)
---------------------------
 V      0   0   0     0.000000000000     0.00000000     0.00000000
 S      1   0   0     4.630309385493     0.00000000     0.00000000
 S      1   2   0     4.628942783753    85.85704984     0.00000000
 S      1   2   3     4.629149460573    83.42453191   145.70723731
 S      1   2   3     4.630636471772   144.87844212    72.39316430
 O      1   2   3     3.017174979212   107.45755768   252.43708612
 C      3   1   2     3.345133552609   103.41306559   160.95442015
 C      7   3   1     2.569693861008   124.27140228   348.52399718
 C      2   1   3     3.341067548670   104.34543228   198.34803396
 C      9   2   1     2.569312472526   121.38206216    14.87174908
 S      7   3   1     3.474509434924   113.75007007   166.73371605
 S      8   7   3     3.343319915260   123.32776302   181.75084768
 S     10   9   2     3.450014956386   122.19911060   178.83570561
 S      9   2   1     3.368776943491   115.40610032   191.82647954
 C     12   8   7     3.477004288370   106.53677747    64.28995742
 C     13  10   9     3.502074745748   100.70304041   290.98655803
 C     11   7   3     3.510907710159    99.49280683   111.59961518
 C     14   9   2     3.479737071092   105.14349247   248.69716257
 C     15  12   8     2.844701046210   116.86911531   281.59723401
 H     17  11   7     2.131465411689   114.38035373   302.69785923
 H     17  11   7     2.145792026084    96.18521005   189.41857482
 H     19  15  12     2.082858723942   108.57906233   185.13291335
 H     19  15  12     2.096594110968   115.14858598   304.47695079
 H     15  12   8     2.137997211839   111.53164499   140.86864593
 H     15  12   8     2.132960933151    98.26679736    28.53723382
 C     18  14   9     2.859359261978   116.63911462   280.06878758
 H     18  14   9     2.095106565752   109.26781006   146.93832510
 H     18  14   9     2.091539372115   101.68673244    33.55479942
 H     26  18  14     2.080521576715   112.93883455   304.48676741
 H     26  18  14     2.082696311587   108.27429212   186.47229369
 H     16  13  10     2.090663596077   111.96679535   308.45941283
 H     16  13  10     2.100228978949    99.45715281   194.45839454

---------------------
BASIS SET INFORMATION
---------------------
There are 5 groups of distinct atoms

 Group   1 Type V   : 17s11p5d1f contracted to 17s7p3d1f pattern {11111111111111111/3311111/311/1}
 Group   2 Type S   : 14s9p1d contracted to 5s4p1d pattern {73211/6111/1}
 Group   3 Type O   : 11s6p1d contracted to 5s3p1d pattern {62111/411/1}
 Group   4 Type C   : 11s6p1d contracted to 5s3p1d pattern {62111/411/1}
 Group   5 Type H   : 5s1p contracted to 3s1p pattern {311/1}

Atom   0V    basis set group =>   1
Atom   1S    basis set group =>   2
Atom   2S    basis set group =>   2
Atom   3S    basis set group =>   2
Atom   4S    basis set group =>   2
Atom   5O    basis set group =>   3
Atom   6C    basis set group =>   4
Atom   7C    basis set group =>   4
Atom   8C    basis set group =>   4
Atom   9C    basis set group =>   4
Atom  10S    basis set group =>   2
Atom  11S    basis set group =>   2
Atom  12S    basis set group =>   2
Atom  13S    basis set group =>   2
Atom  14C    basis set group =>   4
Atom  15C    basis set group =>   4
Atom  16C    basis set group =>   4
Atom  17C    basis set group =>   4
Atom  18C    basis set group =>   4
Atom  19H    basis set group =>   5
Atom  20H    basis set group =>   5
Atom  21H    basis set group =>   5
Atom  22H    basis set group =>   5
Atom  23H    basis set group =>   5
Atom  24H    basis set group =>   5
Atom  25C    basis set group =>   4
Atom  26H    basis set group =>   5
Atom  27H    basis set group =>   5
Atom  28H    basis set group =>   5
Atom  29H    basis set group =>   5
Atom  30H    basis set group =>   5
Atom  31H    basis set group =>   5

-------------------------
BASIS SET IN INPUT FORMAT
-------------------------

 # Basis set for element : H 
 NewGTO H 
 S 3 
   1      34.0613410000      0.0254393168
   2       5.1235746000      0.1900859340
   3       1.1646626000      0.8524411390
 S 1 
   1       0.3272304100      1.0000000000
 S 1 
   1       0.1030724100      1.0000000000
 P 1 
   1       0.8000000000      1.0000000000
  end;

 # Basis set for element : C 
 NewGTO C 
 S 6 
   1   13575.3496820000      0.0006064601
   2    2035.2333680000      0.0046978985
   3     463.2256235900      0.0243324735
   4     131.2001959800      0.0973999560
   5      42.8530158900      0.3019558443
   6      15.5841857700      0.6623361013
 S 2 
   1       6.2067138500      0.6559530795
   2       2.5764896500      0.3758563390
 S 1 
   1       0.5769633900      1.0000000000
 S 1 
   1       0.2297283100      1.0000000000
 S 1 
   1       0.0951644400      1.0000000000
 P 4 
   1      34.6972322400      0.0113272290
   2       7.9582622800      0.0761696612
   3       2.3780826900      0.3019225154
   4       0.8143320800      0.7278502776
 P 1 
   1       0.2888754700      1.0000000000
 P 1 
   1       0.1005682400      1.0000000000
 D 1 
   1       0.8000000000      1.0000000000
  end;

 # Basis set for element : O 
 NewGTO O 
 S 6 
   1   27032.3826310000      0.0005722654
   2    4052.3871392000      0.0044353333
   3     922.3272271000      0.0230201034
   4     261.2407098900      0.0928224938
   5      85.3546413500      0.2937849971
   6      31.0350352400      0.6740160462
 S 2 
   1      12.2608607300      0.6383993750
   2       4.9987076000      0.3953458663
 S 1 
   1       1.1703108200      1.0000000000
 S 1 
   1       0.4647474100      1.0000000000
 S 1 
   1       0.1850453600      1.0000000000
 P 4 
   1      63.2749548000      0.0120183316
   2      14.6270493800      0.0830054304
   3       4.4501223500      0.3199174388
   4       1.5275799600      0.7071554258
 P 1 
   1       0.5293511800      1.0000000000
 P 1 
   1       0.1747842100      1.0000000000
 D 1 
   1       1.2000000000      1.0000000000
  end;

 # Basis set for element : S 
 NewGTO S 
 S 7 
   1   60700.9281040000      0.0005238013
   2    9102.6106854000      0.0040506304
   3    2071.4166009000      0.0208270003
   4     586.0247682100      0.0814968475
   5     190.5539502100      0.2374911358
   6      67.6303842600      0.4472617145
   7      25.1273069100      0.3489191913
 S 3 
   1     112.5746301000      0.1004556993
   2      34.7955542200      0.4339117282
   3       6.5115556200     -1.2084330582
 S 2 
   1       3.2399032300      0.6749812922
   2       1.5477160900      0.3470879597
 S 1 
   1       0.4054103000      1.0000000000
 S 1 
   1       0.1455065100      1.0000000000
 P 6 
   1     564.3671602700      0.0025564845
   2     133.4262437900      0.0202874255
   3      42.4682711900      0.0927670112
   4      15.6165275800      0.2650208365
   5       6.1093988500      0.4486298663
   6       2.4404160200      0.3596369916
 P 1 
   1       0.8388220100      1.0000000000
 P 1 
   1       0.3128874700      1.0000000000
 P 1 
   1       0.1077010900      1.0000000000
 D 1 
   1       0.5500000000      1.0000000000
  end;

 # Basis set for element : V 
 NewGTO V 
 S 1 
   1  4239814.9912500000      1.0000000000
 S 1 
   1  1695925.9965000001      1.0000000000
 S 1 
   1  678370.3986000001      1.0000000000
 S 1 
   1  271348.1594400000      1.0000000000
 S 1 
   1   40672.0050780000      1.0000000000
 S 1 
   1    9257.0761385000      1.0000000000
 S 1 
   1    2622.7328773000      1.0000000000
 S 1 
   1     858.5948018500      1.0000000000
 S 1 
   1     314.1941865000      1.0000000000
 S 1 
   1     124.4786212700      1.0000000000
 S 1 
   1      50.4693993090      1.0000000000
 S 1 
   1      12.5138469110      1.0000000000
 S 1 
   1       5.3447758082      1.0000000000
 S 1 
   1       1.5755631295      1.0000000000
 S 1 
   1       0.6306903307      1.0000000000
 S 1 
   1       0.0879544416      1.0000000000
 S 1 
   1       0.0342969197      1.0000000000
 P 3 
   1    1450.0319327000     -0.0222847647
   2     343.7504988400     -0.1817959329
   3     110.8252170800     -0.8607412073
 P 3 
   1      41.8224645460     -0.2522537814
   2      17.0880737100     -0.4620379520
   3       7.2613218939     -0.3990010670
 P 1 
   1       2.9458145262      1.0000000000
 P 1 
   1       1.1650209680      1.0000000000
 P 1 
   1       0.4339937839      1.0000000000
 D 3 
   1      27.3603358640      0.0575501019
   2       7.4542765527      0.3023798347
   3       2.4632270217      0.7724212088
 D 1 
   1       0.8249954244      1.0000000000
 D 1 
   1       0.2526297057      1.0000000000
 P 1 
   1       0.1112480000      1.0000000000
 P 1 
   1       0.0363780000      1.0000000000
 F 1 
   1       1.8000000000      1.0000000000
  end;

---------------------------------
AUXILIARY/J BASIS SET INFORMATION
---------------------------------
There are 5 groups of distinct atoms

 Group   1 Type V   : 19s5p5d3f3g contracted to 8s5p5d2f3g pattern {121111111/11111/11111/21/111}
 Group   2 Type S   : 14s5p5d2f1g contracted to 8s4p3d1f1g pattern {71111111/2111/311/2/1}
 Group   3 Type O   : 12s5p4d2f1g contracted to 6s4p3d1f1g pattern {711111/2111/211/2/1}
 Group   4 Type C   : 12s5p4d2f1g contracted to 6s4p3d1f1g pattern {711111/2111/211/2/1}
 Group   5 Type H   : 5s2p1d contracted to 3s1p1d pattern {311/2/1}

Atom   0V    basis set group =>   1
Atom   1S    basis set group =>   2
Atom   2S    basis set group =>   2
Atom   3S    basis set group =>   2
Atom   4S    basis set group =>   2
Atom   5O    basis set group =>   3
Atom   6C    basis set group =>   4
Atom   7C    basis set group =>   4
Atom   8C    basis set group =>   4
Atom   9C    basis set group =>   4
Atom  10S    basis set group =>   2
Atom  11S    basis set group =>   2
Atom  12S    basis set group =>   2
Atom  13S    basis set group =>   2
Atom  14C    basis set group =>   4
Atom  15C    basis set group =>   4
Atom  16C    basis set group =>   4
Atom  17C    basis set group =>   4
Atom  18C    basis set group =>   4
Atom  19H    basis set group =>   5
Atom  20H    basis set group =>   5
Atom  21H    basis set group =>   5
Atom  22H    basis set group =>   5
Atom  23H    basis set group =>   5
Atom  24H    basis set group =>   5
Atom  25C    basis set group =>   4
Atom  26H    basis set group =>   5
Atom  27H    basis set group =>   5
Atom  28H    basis set group =>   5
Atom  29H    basis set group =>   5
Atom  30H    basis set group =>   5
Atom  31H    basis set group =>   5

-------------------------------------
AUXILIARY/J BASIS SET IN INPUT FORMAT
-------------------------------------

 # Auxiliary/J basis set for element : H 
 NewAuxJGTO H 
 S 3 
   1      15.6752927000      0.1007184237
   2       3.6063578000      0.3404257499
   3       1.2080016000      0.6491996172
 S 1 
   1       0.4726794000      1.0000000000
 S 1 
   1       0.2018100000      1.0000000000
 P 2 
   1       2.0281365000      0.5596620919
   2       0.5358730000      0.5596620919
 D 1 
   1       2.2165124000      1.0000000000
  end;

 # Auxiliary/J basis set for element : C 
 NewAuxJGTO C 
 S 7 
   1    1861.0916331000      0.0134602335
   2     642.9939764000      0.0299160374
   3     235.1105725000      0.1008649584
   4      90.7028894000      0.2370970548
   5      36.7794552000      0.3924037254
   6      15.6046273000      0.3195862154
   7       6.8907294000      0.0530104441
 S 1 
   1       3.1478850000     -1.0000000000
 S 1 
   1       1.4777287000      1.0000000000
 S 1 
   1       0.7076466000      1.0000000000
 S 1 
   1       0.3430122000      1.0000000000
 S 1 
   1       0.1669453000      1.0000000000
 P 2 
   1      13.5472892000     -0.6769313712
   2       5.4669419000     -0.3779500978
 P 1 
   1       2.1751721000      1.0000000000
 P 1 
   1       0.8582194000      1.0000000000
 P 1 
   1       0.3376720000      1.0000000000
 D 2 
   1       5.9287253000     -0.3533329857
   2       1.9809209000     -0.7456525731
 D 1 
   1       0.8055417000     -1.0000000000
 D 1 
   1       0.3531244000     -1.0000000000
 F 2 
   1       1.6755626000      0.6311076882
   2       0.5997536000      0.4968166032
 G 1 
   1       1.0024600000     -1.0000000000
  end;

 # Auxiliary/J basis set for element : O 
 NewAuxJGTO O 
 S 7 
   1    2876.8216605000      0.0168151159
   2    1004.7443032000      0.0340137548
   3     369.7579954000      0.1194951309
   4     142.9442404000      0.2664627624
   5      57.8366425000      0.4202764046
   6      24.3864983000      0.2765077335
   7      10.6622662000      0.0057008815
 S 1 
   1       4.8070437000     -1.0000000000
 S 1 
   1       2.2210770000      1.0000000000
 S 1 
   1       1.0447795000      1.0000000000
 S 1 
   1       0.4968425000      1.0000000000
 S 1 
   1       0.2371384000      1.0000000000
 P 2 
   1      64.2613382000     -0.2731534179
   2      16.3006076000     -0.8168011598
 P 1 
   1       4.3550542000      1.0000000000
 P 1 
   1       1.2019554000      1.0000000000
 P 1 
   1       0.3354196000      1.0000000000
 D 2 
   1       9.2146611000     -0.4661230638
   2       2.8435251000     -0.6600908911
 D 1 
   1       0.9955759000     -1.0000000000
 D 1 
   1       0.3649441000     -1.0000000000
 F 2 
   1       2.6420115000      0.5931563945
   2       0.7345613000      0.5931563945
 G 1 
   1       1.3931000000     -1.0000000000
  end;

 # Auxiliary/J basis set for element : S 
 NewAuxJGTO S 
 S 7 
   1    7399.0303145000      0.0295137551
   2    2710.1675859000      0.0559686311
   3    1034.3279062000      0.1764696370
   4     410.4645411000      0.3577969368
   5     168.9762502000      0.4299293578
   6      71.9687889000      0.1259148089
   7      31.6172683000     -0.0646025788
 S 1 
   1      14.2796836000      1.0000000000
 S 1 
   1       6.6060948000      1.0000000000
 S 1 
   1       3.1181477000      1.0000000000
 S 1 
   1       1.4954039000     -1.0000000000
 S 1 
   1       0.7254779000      1.0000000000
 S 1 
   1       0.3544216000      1.0000000000
 S 1 
   1       0.1735525000      1.0000000000
 P 2 
   1      12.6998799000      1.4059102813
   2       4.4295784000     -1.2124994202
 P 1 
   1       1.5232889000      1.0000000000
 P 1 
   1       0.5194667000     -1.0000000000
 P 1 
   1       0.1766547000     -1.0000000000
 D 3 
   1      16.8546461000      1.0295742104
   2       5.0810461000     -0.7461553923
   3       1.5102323000      0.8357028005
 D 1 
   1       0.4451331000      1.0000000000
 D 1 
   1       0.1308362000      1.0000000000
 F 2 
   1       1.0809860000      0.5572698934
   2       0.4161474000      0.5572698934
 G 1 
   1       0.6707100000     -1.0000000000
  end;

 # Auxiliary/J basis set for element : V 
 NewAuxJGTO V 
 S 12 
   1   11942.0842430000      0.0459866720
   2    2430.7110193000      0.1744615821
   3     841.0764301000      0.2900402792
   4     494.7508273000      0.1411212903
   5     291.0298903000      0.2660697186
   6     171.1940483000      0.0446365706
   7      59.2366916000     -0.0408204801
   8      34.8451117000      0.1394665381
   9      20.4971240000      0.2164746715
  10      12.0571314000      0.0864266611
  11       7.0924300000     -0.0568501658
  12       4.1720176000     -0.0126212852
 S 1 
   1       2.4541279000      1.0000000000
 S 1 
   1       1.4436046000      1.0000000000
 S 1 
   1       0.8491792000      1.0000000000
 S 1 
   1       0.2938336000      1.0000000000
 S 1 
   1       0.1728433000      1.0000000000
 S 1 
   1       0.1016725000      1.0000000000
 S 1 
   1       0.0598074000      1.0000000000
 P 1 
   1      16.7130979000     -1.0000000000
 P 1 
   1       4.7454037000     -1.0000000000
 P 1 
   1       1.3889998000      1.0000000000
 P 1 
   1       0.4142440000     -1.0000000000
 P 1 
   1       0.1243234000      1.0000000000
 D 1 
   1       7.7143225000      1.0000000000
 D 1 
   1       3.1170731000      1.0000000000
 D 1 
   1       1.2767950000     -1.0000000000
 D 1 
   1       0.5273386000      1.0000000000
 D 1 
   1       0.2184050000      1.0000000000
 F 2 
   1       3.1309344000     -1.0825667766
   2       1.0419780000      0.1809223232
 F 1 
   1       0.3559044000      1.0000000000
 G 1 
   1       8.7130110000      1.0000000000
 G 1 
   1       2.7493872000      1.0000000000
 G 1 
   1       0.8775089000      1.0000000000
  end;



           ************************************************************
           *        Program running with 4 parallel MPI-processes     *
           *              working on a common directory               *
           ************************************************************
------------------------------------------------------------------------------
                           ORCA GTO INTEGRAL CALCULATION
                           -- RI-GTO INTEGRALS CHOSEN --
------------------------------------------------------------------------------
------------------------------------------------------------------------------
                   ___                                                        
                  /   \      - P O W E R E D   B Y -                         
                 /     \                                                     
                 |  |  |   _    _      __       _____    __    __             
                 |  |  |  | |  | |    /  \     |  _  \  |  |  /  |          
                  \  \/   | |  | |   /    \    | | | |  |  | /  /          
                 / \  \   | |__| |  /  /\  \   | |_| |  |  |/  /          
                |  |  |   |  __  | /  /__\  \  |    /   |      \           
                |  |  |   | |  | | |   __   |  |    \   |  |\   \          
                \     /   | |  | | |  |  |  |  | |\  \  |  | \   \       
                 \___/    |_|  |_| |__|  |__|  |_| \__\ |__|  \__/        
                                                                              
                      - O R C A' S   B I G   F R I E N D -                    
                                      &                                       
                       - I N T E G R A L  F E E D E R -                       
                                                                              
 v1 FN, 2020, v2 2021                                                         
------------------------------------------------------------------------------


Reading SHARK input file input_43.SHARKINP.tmp ... ok
----------------------
SHARK INTEGRAL PACKAGE
----------------------

Number of atoms                             ...     32
Number of basis functions                   ...    517
Number of shells                            ...    255
Maximum angular momentum                    ...      3
Integral batch strategy                     ... SHARK/LIBINT Hybrid
RI-J (if used) integral strategy            ... SPLIT-RIJ (Revised 2003 algorithm where possible)
Printlevel                                  ...      1
Contraction scheme used                     ... SEGMENTED contraction
Coulomb Range Separation                    ... NOT USED
Exchange Range Separation                   ... NOT USED
Finite Nucleus Model                        ... NOT USED
Auxiliary Coulomb fitting basis             ... AVAILABLE
   # of basis functions in Aux-J            ...   1168
   # of shells in Aux-J                     ...    384
   Maximum angular momentum in Aux-J        ...      4
Auxiliary J/K fitting basis                 ... NOT available
Auxiliary Correlation fitting basis         ... NOT available
Auxiliary 'external' fitting basis          ... NOT available
Integral threshold                          ...     1.000000e-10
Primitive cut-off                           ...     1.000000e-11
Primitive pair pre-selection threshold      ...     1.000000e-11

Calculating pre-screening integrals         ... done (  0.1 sec) Dimension = 255
Organizing shell pair data                  ... done (  0.1 sec)
Shell pair information
Total number of shell pairs                 ...     32640
Shell pairs after pre-screening             ...     17829
Total number of primitive shell pairs       ...    123863
Primitive shell pairs kept                  ...     41667
          la=0 lb=0:   5377 shell pairs
          la=1 lb=0:   7066 shell pairs
          la=1 lb=1:   2299 shell pairs
          la=2 lb=0:   1676 shell pairs
          la=2 lb=1:   1120 shell pairs
          la=2 lb=2:    154 shell pairs
          la=3 lb=0:     72 shell pairs
          la=3 lb=1:     52 shell pairs
          la=3 lb=2:     12 shell pairs
          la=3 lb=3:      1 shell pairs

Calculating one electron integrals          ... done (  0.0 sec)
Calculating RI/J V-Matrix + Cholesky decomp.... done (  0.1 sec)
Calculating Nuclear repulsion               ... done (  0.0 sec) ENN=   3211.402812370482 Eh

SHARK setup successfully completed in   0.5 seconds

Maximum memory used throughout the entire GTOINT-calculation: 31.9 MB


           ************************************************************
           *        Program running with 4 parallel MPI-processes     *
           *              working on a common directory               *
           ************************************************************
-------------------------------------------------------------------------------
                                 ORCA SCF
-------------------------------------------------------------------------------

------------
SCF SETTINGS
------------
Hamiltonian:
 Density Functional     Method          .... DFT(GTOs)
 Exchange Functional    Exchange        .... B88
   X-Alpha parameter    XAlpha          ....  0.666667
   Becke's b parameter  XBeta           ....  0.004200
 Correlation Functional Correlation     .... LYP
 LDA part of GGA corr.  LDAOpt          .... VWN-5
 Gradients option       PostSCFGGA      .... off
 Hybrid DFT is turned on
   Fraction HF Exchange ScalHFX         ....  0.200000
   Scaling of DF-GGA-X  ScalDFX         ....  0.720000
   Scaling of DF-GGA-C  ScalDFC         ....  0.810000
   Scaling of DF-LDA-C  ScalLDAC        ....  1.000000
   Perturbative correction              ....  0.000000
   Density functional embedding theory  .... OFF
   NL short-range parameter             ....  4.800000
 RI-approximation to the Coulomb term is turned on
   Number of AuxJ basis functions       .... 1168
   RIJ-COSX (HFX calculated with COS-X)).... on


General Settings:
 Integral files         IntName         .... input_43
 Hartree-Fock type      HFTyp           .... UHF
 Total Charge           Charge          ....   -2
 Multiplicity           Mult            ....    2
 Number of Electrons    NEL             ....  233
 Basis Dimension        Dim             ....  517
 Nuclear Repulsion      ENuc            ....   3211.4028123705 Eh

Convergence Acceleration:
 DIIS                   CNVDIIS         .... on
   Start iteration      DIISMaxIt       ....    12
   Startup error        DIISStart       ....  0.200000
   # of expansion vecs  DIISMaxEq       ....     5
   Bias factor          DIISBfac        ....   1.050
   Max. coefficient     DIISMaxC        ....  10.000
 Trust-Rad. Augm. Hess. CNVTRAH         .... auto
   Auto Start mean grad. ratio tolernc. ....  1.125000
   Auto Start start iteration           ....    20
   Auto Start num. interpolation iter.  ....    10
   Max. Number of Micro iterations      ....    16
   Max. Number of Macro iterations      .... Maxiter - #DIIS iter
   Number of Davidson start vectors     ....     2
   Converg. threshold I  (grad. norm)   ....   5.000e-05
   Converg. threshold II (energy diff.) ....   1.000e-06
   Grad. Scal. Fac. for Micro threshold ....   0.100
   Minimum threshold for Micro iter.    ....   0.010
   NR start threshold (gradient norm)   ....   0.001
   Initial trust radius                 ....   0.400
   Minimum AH scaling param. (alpha)    ....   1.000
   Maximum AH scaling param. (alpha)    .... 1000.000
   Orbital update algorithm             .... Taylor
   White noise on init. David. guess    .... on
   Maximum white noise                  ....   0.010
   Quad. conv. algorithm                .... NR
 SOSCF                  CNVSOSCF        .... off
 Level Shifting         CNVShift        .... on
   Level shift para.    LevelShift      ....    0.2500
   Turn off err/grad.   ShiftErr        ....    0.0010
 Zerner damping         CNVZerner       .... off
 Static damping         CNVDamp         .... on
   Fraction old density DampFac         ....    0.7000
   Max. Damping (<1)    DampMax         ....    0.9800
   Min. Damping (>=0)   DampMin         ....    0.0000
   Turn off err/grad.   DampErr         ....    0.1000
 Fernandez-Rico         CNVRico         .... off

SCF Procedure:
 Maximum # iterations   MaxIter         ....   125
 SCF integral mode      SCFMode         .... Direct
   Integral package                     .... SHARK and LIBINT hybrid scheme
 Reset frequency        DirectResetFreq ....    20
 Integral Threshold     Thresh          ....  1.000e-10 Eh
 Primitive CutOff       TCut            ....  1.000e-11 Eh

Convergence Tolerance:
 Convergence Check Mode ConvCheckMode   .... Total+1el-Energy
 Convergence forced     ConvForced      .... 0
 Energy Change          TolE            ....  1.000e-06 Eh
 1-El. energy change                    ....  1.000e-03 Eh
 DIIS Error             TolErr          ....  1.000e-06


Diagonalization of the overlap matrix:
Smallest eigenvalue                        ... 1.837e-04
Time for diagonalization                   ...    0.085 sec
Threshold for overlap eigenvalues          ... 1.000e-08
Number of eigenvalues below threshold      ... 0
Time for construction of square roots      ...    0.071 sec
Total time needed                          ...    0.158 sec

Time for model grid setup =    0.356 sec

------------------------------
INITIAL GUESS: MODEL POTENTIAL
------------------------------
Loading Hartree-Fock densities                     ... done
Calculating cut-offs                               ... done
Initializing the effective Hamiltonian             ... done
Setting up the integral package (SHARK)            ... done
Starting the Coulomb interaction                   ... done (   0.4 sec)
Reading the grid                                   ... done
Mapping shells                                     ... done
Starting the XC term evaluation                    ... done (   0.2 sec)
  promolecular density results
     # of electrons  =    230.998658826
     EX              =   -307.523358060
     EC              =     -9.025690050
     EX+EC           =   -316.549048111
Transforming the Hamiltonian                       ... done (   0.1 sec)
Diagonalizing the Hamiltonian                      ... done (   0.1 sec)
Back transforming the eigenvectors                 ... done (   0.0 sec)
Now organizing SCF variables                       ... done
                      ------------------
                      INITIAL GUESS DONE (   1.2 sec)
                      ------------------
-------------------
DFT GRID GENERATION
-------------------

General Integration Accuracy     IntAcc      ... 4.388
Radial Grid Type                 RadialGrid  ... OptM3 with GC (2021)
Angular Grid (max. ang.)         AngularGrid ... 4 (Lebedev-302)
Angular grid pruning method      GridPruning ... 4 (adaptive)
Weight generation scheme         WeightScheme... Becke
Basis function cutoff            BFCut       ... 1.0000e-10
Integration weight cutoff        WCut        ... 1.0000e-14
Angular grids for H and He will be reduced by one unit
Partially contracted basis set               ... off
Rotationally invariant grid construction     ... off

Total number of grid points                  ...   184062
Total number of batches                      ...     2892
Average number of points per batch           ...       63
Average number of grid points per atom       ...     5752
Time for grid setup =    1.607 sec

--------------------
COSX GRID GENERATION
--------------------

GRIDX 1
-------
General Integration Accuracy     IntAcc      ... 3.816
Radial Grid Type                 RadialGrid  ... OptM3 with GC (2021)
Angular Grid (max. ang.)         AngularGrid ... 1 (Lebedev-50)
Angular grid pruning method      GridPruning ... 4 (adaptive)
Weight generation scheme         WeightScheme... Becke
Basis function cutoff            BFCut       ... 1.0000e-10
Integration weight cutoff        WCut        ... 1.0000e-14
Angular grids for H and He will be reduced by one unit
Partially contracted basis set               ... on
Rotationally invariant grid construction     ... off

Total number of grid points                  ...    22799
Total number of batches                      ...      375
Average number of points per batch           ...       60
Average number of grid points per atom       ...      712
UseSFitting                                  ... on

GRIDX 2
-------
General Integration Accuracy     IntAcc      ... 4.020
Radial Grid Type                 RadialGrid  ... OptM3 with GC (2021)
Angular Grid (max. ang.)         AngularGrid ... 2 (Lebedev-110)
Angular grid pruning method      GridPruning ... 4 (adaptive)
Weight generation scheme         WeightScheme... Becke
Basis function cutoff            BFCut       ... 1.0000e-10
Integration weight cutoff        WCut        ... 1.0000e-14
Angular grids for H and He will be reduced by one unit
Partially contracted basis set               ... on
Rotationally invariant grid construction     ... off

Total number of grid points                  ...    49138
Total number of batches                      ...      785
Average number of points per batch           ...       62
Average number of grid points per atom       ...     1536
UseSFitting                                  ... on

GRIDX 3
-------
General Integration Accuracy     IntAcc      ... 4.338
Radial Grid Type                 RadialGrid  ... OptM3 with GC (2021)
Angular Grid (max. ang.)         AngularGrid ... 3 (Lebedev-194)
Angular grid pruning method      GridPruning ... 4 (adaptive)
Weight generation scheme         WeightScheme... Becke
Basis function cutoff            BFCut       ... 1.0000e-10
Integration weight cutoff        WCut        ... 1.0000e-14
Angular grids for H and He will be reduced by one unit
Partially contracted basis set               ... on
Rotationally invariant grid construction     ... off

Total number of grid points                  ...   112174
Total number of batches                      ...     1768
Average number of points per batch           ...       63
Average number of grid points per atom       ...     3505
UseSFitting                                  ... on

Time for X-Grid setup             =    1.800 sec

--------------
SCF ITERATIONS
--------------
ITER       Energy         Delta-E        Max-DP      RMS-DP      [F,P]     Damp
               ***  Starting incremental Fock matrix formation  ***
  0  -4591.9924801768   0.000000000000 0.09720041  0.00094964  0.2292652 0.7000
  1  -4592.2735600568  -0.281079880038 0.14873426  0.00097226  0.1560091 0.7000
                               ***Turning on DIIS***
  2  -4592.4179551471  -0.144395090266 0.10498826  0.00061609  0.1091672 0.7000
  3  -4592.4973474854  -0.079392338345 0.14079262  0.00094729  0.0772190 0.0000
  4  -4592.6854216388  -0.188074153349 0.09072959  0.00053204  0.0145931 0.0000
  5  -4592.6909571187  -0.005535479951 0.01436932  0.00010624  0.0101395 0.0000
  6  -4592.6921007374  -0.001143618687 0.00262730  0.00004508  0.0022580 0.0000
  7  -4592.6922944181  -0.000193680640 0.00139551  0.00002182  0.0013214 0.0000
  8  -4592.6923585022  -0.000064084102 0.00160520  0.00001593  0.0011485 0.0000
  9  -4592.6923942430  -0.000035740813 0.00308048  0.00002281  0.0007022 0.0000
               *** Restarting incremental Fock matrix formation ***
                                   *** Resetting DIIS ***
 10  -4592.6924386073  -0.000044364351 0.00171581  0.00001525  0.0007252 0.0000
 11  -4592.6924088049   0.000029802415 0.00034276  0.00000393  0.0020245 0.0000
 12  -4592.6924442370  -0.000035432051 0.00069517  0.00000619  0.0008612 0.0000
 13  -4592.6924517537  -0.000007516773 0.00052957  0.00000411  0.0002692 0.0000
 14  -4592.6924543686  -0.000002614901 0.00032016  0.00000272  0.0001850 0.0000
 15  -4592.6924550367  -0.000000668061 0.00028788  0.00000201  0.0001358 0.0000
 16  -4592.6924552353  -0.000000198631 0.00026734  0.00000169  0.0000960 0.0000
                 **** Energy Check signals convergence ****

               *****************************************************
               *                     SUCCESS                       *
               *           SCF CONVERGED AFTER  17 CYCLES          *
               *****************************************************

Old exchange energy                            =    -61.747424317 Eh
New exchange energy                            =    -61.747383695 Eh
Exchange energy change after final integration =      0.000040622 Eh
Total energy after final integration           =  -4592.692414818 Eh
Final COS-X integration done in                =    25.045 sec

----------------
TOTAL SCF ENERGY
----------------

Total Energy       :        -4592.69241482 Eh         -124973.51414 eV

Components:
Nuclear Repulsion  :         3211.40281237 Eh           87386.71318 eV
Electronic Energy  :        -7804.09522719 Eh         -212360.22732 eV
One Electron Energy:       -12786.47587213 Eh         -347937.69729 eV
Two Electron Energy:         4982.38064494 Eh          135577.46997 eV
Max COSX asymmetry :            0.00000258 Eh               0.00007 eV

Virial components:
Potential Energy   :        -9173.57034094 Eh         -249625.53969 eV
Kinetic Energy     :         4580.87792613 Eh          124652.02556 eV
Virial Ratio       :            2.00257909


DFT components:
N(Alpha)           :      117.000035061818 electrons
N(Beta)            :      116.000035014098 electrons
N(Total)           :      233.000070075916 electrons
E(X)               :     -245.437382894321 Eh       
E(C)               :      -10.622533563597 Eh       
E(XC)              :     -256.059916457918 Eh       
DFET-embed. en.    :        0.000000000000 Eh       

---------------
SCF CONVERGENCE
---------------

  Last Energy change         ...   -2.0461e-07  Tolerance :   1.0000e-06
  Last MAX-Density change    ...    0.0000e+00  Tolerance :   1.0000e-05
  Last RMS-Density change    ...    0.0000e+00  Tolerance :   1.0000e-06
  Last DIIS Error            ...    1.9840e-05  Tolerance :   1.0000e-06

             **** THE GBW FILE WAS UPDATED (input_43.gbw) ****
             **** DENSITY input_43.scfp WAS UPDATED ****
             **** ENERGY FILE WAS UPDATED (input_43.en.tmp) ****
----------------------
UHF SPIN CONTAMINATION
----------------------

Warning: in a DFT calculation there is little theoretical justification to 
         calculate <S**2> as in Hartree-Fock theory. We will do it anyways
         but you should keep in mind that the values have only limited relevance

Expectation value of <S**2>     :     0.764836
Ideal value S*(S+1) for S=0.5   :     0.750000
Deviation                       :     0.014836

             **** THE GBW FILE WAS UPDATED (input_43.gbw) ****
             **** DENSITY input_43.scfp WAS UPDATED ****
----------------
ORBITAL ENERGIES
----------------
                 SPIN UP ORBITALS
  NO   OCC          E(Eh)            E(eV) 
   0   1.0000    -196.640484     -5350.8596 
   1   1.0000     -88.681206     -2413.1383 
   2   1.0000     -88.679261     -2413.0854 
   3   1.0000     -88.674916     -2412.9671 
   4   1.0000     -88.674485     -2412.9554 
   5   1.0000     -88.614242     -2411.3161 
   6   1.0000     -88.613379     -2411.2926 
   7   1.0000     -88.611283     -2411.2356 
   8   1.0000     -88.610890     -2411.2249 
   9   1.0000     -22.016289      -599.0937 
  10   1.0000     -18.857578      -513.1408 
  11   1.0000     -18.523118      -504.0397 
  12   1.0000     -18.517336      -503.8823 
  13   1.0000     -18.517301      -503.8814 
  14   1.0000     -10.026196      -272.8267 
  15   1.0000     -10.020635      -272.6753 
  16   1.0000     -10.019283      -272.6385 
  17   1.0000     -10.016083      -272.5515 
  18   1.0000     -10.009460      -272.3712 
  19   1.0000     -10.006569      -272.2926 
  20   1.0000      -9.994151      -271.9547 
  21   1.0000      -9.993184      -271.9284 
  22   1.0000      -9.990386      -271.8522 
  23   1.0000      -9.989852      -271.8377 
  24   1.0000      -7.733992      -210.4526 
  25   1.0000      -7.732392      -210.4091 
  26   1.0000      -7.728986      -210.3164 
  27   1.0000      -7.728769      -210.3105 
  28   1.0000      -7.668491      -208.6702 
  29   1.0000      -7.667737      -208.6497 
  30   1.0000      -7.665780      -208.5965 
  31   1.0000      -7.665448      -208.5875 
  32   1.0000      -5.699277      -155.0852 
  33   1.0000      -5.697663      -155.0413 
  34   1.0000      -5.695539      -154.9835 
  35   1.0000      -5.694212      -154.9474 
  36   1.0000      -5.693989      -154.9413 
  37   1.0000      -5.693865      -154.9379 
  38   1.0000      -5.690213      -154.8386 
  39   1.0000      -5.689913      -154.8304 
  40   1.0000      -5.688683      -154.7969 
  41   1.0000      -5.687114      -154.7542 
  42   1.0000      -5.683772      -154.6633 
  43   1.0000      -5.683576      -154.6580 
  44   1.0000      -5.633342      -153.2910 
  45   1.0000      -5.632562      -153.2698 
  46   1.0000      -5.630638      -153.2175 
  47   1.0000      -5.630313      -153.2086 
  48   1.0000      -5.626932      -153.1166 
  49   1.0000      -5.626517      -153.1053 
  50   1.0000      -5.626166      -153.0958 
  51   1.0000      -5.625738      -153.0841 
  52   1.0000      -5.624221      -153.0428 
  53   1.0000      -5.623879      -153.0335 
  54   1.0000      -5.623747      -153.0299 
  55   1.0000      -5.623394      -153.0203 
  56   1.0000      -2.409974       -65.5787 
  57   1.0000      -1.451344       -39.4931 
  58   1.0000      -1.439755       -39.1777 
  59   1.0000      -1.438673       -39.1483 
  60   1.0000      -0.644308       -17.5325 
  61   1.0000      -0.644089       -17.5265 
  62   1.0000      -0.618602       -16.8330 
  63   1.0000      -0.594481       -16.1766 
  64   1.0000      -0.593890       -16.1606 
  65   1.0000      -0.575357       -15.6563 
  66   1.0000      -0.574364       -15.6292 
  67   1.0000      -0.492027       -13.3887 
  68   1.0000      -0.490173       -13.3383 
  69   1.0000      -0.486457       -13.2372 
  70   1.0000      -0.484768       -13.1912 
  71   1.0000      -0.422214       -11.4890 
  72   1.0000      -0.419263       -11.4087 
  73   1.0000      -0.410972       -11.1831 
  74   1.0000      -0.405096       -11.0232 
  75   1.0000      -0.374227       -10.1832 
  76   1.0000      -0.370922       -10.0933 
  77   1.0000      -0.291785        -7.9399 
  78   1.0000      -0.290218        -7.8972 
  79   1.0000      -0.280812        -7.6413 
  80   1.0000      -0.279306        -7.6003 
  81   1.0000      -0.259913        -7.0726 
  82   1.0000      -0.254118        -6.9149 
  83   1.0000      -0.238851        -6.4995 
  84   1.0000      -0.235396        -6.4055 
  85   1.0000      -0.196725        -5.3531 
  86   1.0000      -0.195312        -5.3147 
  87   1.0000      -0.189445        -5.1551 
  88   1.0000      -0.185516        -5.0482 
  89   1.0000      -0.182822        -4.9748 
  90   1.0000      -0.181508        -4.9391 
  91   1.0000      -0.176236        -4.7956 
  92   1.0000      -0.155612        -4.2344 
  93   1.0000      -0.151287        -4.1167 
  94   1.0000      -0.150600        -4.0980 
  95   1.0000      -0.136266        -3.7080 
  96   1.0000      -0.130130        -3.5410 
  97   1.0000      -0.098267        -2.6740 
  98   1.0000      -0.097239        -2.6460 
  99   1.0000      -0.087831        -2.3900 
 100   1.0000      -0.085975        -2.3395 
 101   1.0000      -0.080551        -2.1919 
 102   1.0000      -0.078486        -2.1357 
 103   1.0000      -0.069852        -1.9008 
 104   1.0000      -0.050121        -1.3639 
 105   1.0000      -0.039095        -1.0638 
 106   1.0000      -0.038208        -1.0397 
 107   1.0000      -0.036181        -0.9845 
 108   1.0000      -0.032203        -0.8763 
 109   1.0000      -0.013625        -0.3707 
 110   1.0000      -0.004475        -0.1218 
 111   1.0000      -0.003796        -0.1033 
 112   1.0000       0.005741         0.1562 
 113   1.0000       0.010218         0.2780 
 114   1.0000       0.015983         0.4349 
 115   1.0000       0.033169         0.9026 
 116   1.0000       0.059273         1.6129 
 117   0.0000       0.185704         5.0533 
 118   0.0000       0.191734         5.2174 
 119   0.0000       0.195270         5.3136 
 120   0.0000       0.196382         5.3438 
 121   0.0000       0.211058         5.7432 
 122   0.0000       0.211816         5.7638 
 123   0.0000       0.217572         5.9204 
 124   0.0000       0.225167         6.1271 
 125   0.0000       0.226522         6.1640 
 126   0.0000       0.231223         6.2919 
 127   0.0000       0.234013         6.3678 
 128   0.0000       0.238683         6.4949 
 129   0.0000       0.240720         6.5503 
 130   0.0000       0.244012         6.6399 
 131   0.0000       0.248666         6.7665 
 132   0.0000       0.249536         6.7902 
 133   0.0000       0.252729         6.8771 
 134   0.0000       0.255196         6.9442 
 135   0.0000       0.263071         7.1585 
 136   0.0000       0.271005         7.3744 
 137   0.0000       0.274943         7.4816 
 138   0.0000       0.276787         7.5318 
 139   0.0000       0.281813         7.6685 
 140   0.0000       0.284089         7.7305 
 141   0.0000       0.287018         7.8102 
 142   0.0000       0.292058         7.9473 
 143   0.0000       0.293202         7.9784 
 144   0.0000       0.299678         8.1547 
 145   0.0000       0.303724         8.2648 
 146   0.0000       0.310893         8.4598 
 147   0.0000       0.318292         8.6612 
 148   0.0000       0.329471         8.9654 
 149   0.0000       0.331995         9.0341 
 150   0.0000       0.347156         9.4466 
 151   0.0000       0.360369         9.8061 
 152   0.0000       0.373476        10.1628 
 153   0.0000       0.374509        10.1909 
 154   0.0000       0.391267        10.6469 
 155   0.0000       0.394031        10.7221 
 156   0.0000       0.395062        10.7502 
 157   0.0000       0.397440        10.8149 
 158   0.0000       0.402747        10.9593 
 159   0.0000       0.413369        11.2484 
 160   0.0000       0.422848        11.5063 
 161   0.0000       0.423642        11.5279 
 162   0.0000       0.426259        11.5991 
 163   0.0000       0.429113        11.6768 
 164   0.0000       0.441018        12.0007 
 165   0.0000       0.451059        12.2739 
 166   0.0000       0.453549        12.3417 
 167   0.0000       0.455139        12.3850 
 168   0.0000       0.460838        12.5401 
 169   0.0000       0.462750        12.5921 
 170   0.0000       0.470253        12.7962 
 171   0.0000       0.475033        12.9263 
 172   0.0000       0.476708        12.9719 
 173   0.0000       0.482954        13.1419 
 174   0.0000       0.484767        13.1912 
 175   0.0000       0.493949        13.4410 
 176   0.0000       0.497741        13.5442 
 177   0.0000       0.501861        13.6563 
 178   0.0000       0.507832        13.8188 
 179   0.0000       0.509564        13.8660 
 180   0.0000       0.511915        13.9299 
 181   0.0000       0.514831        14.0093 
 182   0.0000       0.517550        14.0833 
 183   0.0000       0.521187        14.1822 
 184   0.0000       0.536153        14.5895 
 185   0.0000       0.542345        14.7580 
 186   0.0000       0.543816        14.7980 
 187   0.0000       0.546933        14.8828 
 188   0.0000       0.552596        15.0369 
 189   0.0000       0.554129        15.0786 
 190   0.0000       0.559644        15.2287 
 191   0.0000       0.566546        15.4165 
 192   0.0000       0.570349        15.5200 
 193   0.0000       0.573044        15.5933 
 194   0.0000       0.577261        15.7081 
 195   0.0000       0.579845        15.7784 
 196   0.0000       0.582345        15.8464 
 197   0.0000       0.584428        15.9031 
 198   0.0000       0.586066        15.9477 
 199   0.0000       0.592809        16.1311 
 200   0.0000       0.594738        16.1836 
 201   0.0000       0.596057        16.2195 
 202   0.0000       0.603413        16.4197 
 203   0.0000       0.603688        16.4272 
 204   0.0000       0.609156        16.5760 
 205   0.0000       0.610798        16.6207 
 206   0.0000       0.616797        16.7839 
 207   0.0000       0.621730        16.9181 
 208   0.0000       0.624113        16.9830 
 209   0.0000       0.627965        17.0878 
 210   0.0000       0.633179        17.2297 
 211   0.0000       0.639394        17.3988 
 212   0.0000       0.646074        17.5806 
 213   0.0000       0.649719        17.6798 
 214   0.0000       0.651128        17.7181 
 215   0.0000       0.655896        17.8478 
 216   0.0000       0.657813        17.9000 
 217   0.0000       0.660978        17.9861 
 218   0.0000       0.666621        18.1397 
 219   0.0000       0.670997        18.2587 
 220   0.0000       0.678816        18.4715 
 221   0.0000       0.685218        18.6457 
 222   0.0000       0.686343        18.6763 
 223   0.0000       0.710167        19.3246 
 224   0.0000       0.714529        19.4433 
 225   0.0000       0.730121        19.8676 
 226   0.0000       0.735889        20.0246 
 227   0.0000       0.746582        20.3155 
 228   0.0000       0.753910        20.5149 
 229   0.0000       0.758770        20.6472 
 230   0.0000       0.767216        20.8770 
 231   0.0000       0.772823        21.0296 
 232   0.0000       0.778557        21.1856 
 233   0.0000       0.797231        21.6938 
 234   0.0000       0.800919        21.7941 
 235   0.0000       0.837948        22.8017 
 236   0.0000       0.852385        23.1946 
 237   0.0000       0.862605        23.4727 
 238   0.0000       0.872911        23.7531 
 239   0.0000       0.887094        24.1391 
 240   0.0000       0.892430        24.2843 
 241   0.0000       0.904428        24.6107 
 242   0.0000       0.909641        24.7526 
 243   0.0000       0.913981        24.8707 
 244   0.0000       0.920672        25.0528 
 245   0.0000       0.922989        25.1158 
 246   0.0000       0.928692        25.2710 
 247   0.0000       0.941938        25.6314 
 248   0.0000       0.953570        25.9480 
 249   0.0000       0.965131        26.2626 
 250   0.0000       0.973876        26.5005 
 251   0.0000       0.979685        26.6586 
 252   0.0000       0.986397        26.8412 
 253   0.0000       0.987247        26.8644 
 254   0.0000       0.993916        27.0458 
 255   0.0000       0.996522        27.1168 
 256   0.0000       1.000749        27.2318 
 257   0.0000       1.006817        27.3969 
 258   0.0000       1.011374        27.5209 
 259   0.0000       1.031460        28.0674 
 260   0.0000       1.056717        28.7547 
 261   0.0000       1.057482        28.7755 
 262   0.0000       1.060721        28.8637 
 263   0.0000       1.063097        28.9283 
 264   0.0000       1.077869        29.3303 
 265   0.0000       1.086840        29.5744 
 266   0.0000       1.098814        29.9003 
 267   0.0000       1.110695        30.2235 
 268   0.0000       1.116636        30.3852 
 269   0.0000       1.122778        30.5524 
 270   0.0000       1.125377        30.6231 
 271   0.0000       1.128994        30.7215 
 272   0.0000       1.130369        30.7589 
 273   0.0000       1.134656        30.8756 
 274   0.0000       1.139640        31.0112 
 275   0.0000       1.148937        31.2642 
 276   0.0000       1.154085        31.4043 
 277   0.0000       1.157740        31.5037 
 278   0.0000       1.178282        32.0627 
 279   0.0000       1.193465        32.4758 
 280   0.0000       1.195542        32.5323 
 281   0.0000       1.237854        33.6837 
 282   0.0000       1.242694        33.8154 
 283   0.0000       1.271673        34.6040 
 284   0.0000       1.274629        34.6844 
 285   0.0000       1.288346        35.0577 
 286   0.0000       1.292494        35.1706 
 287   0.0000       1.313697        35.7475 
 288   0.0000       1.315040        35.7841 
 289   0.0000       1.347532        36.6682 
 290   0.0000       1.367759        37.2186 
 291   0.0000       1.378182        37.5022 
 292   0.0000       1.389469        37.8094 
 293   0.0000       1.414466        38.4896 
 294   0.0000       1.420648        38.6578 
 295   0.0000       1.430748        38.9326 
 296   0.0000       1.441113        39.2147 
 297   0.0000       1.441474        39.2245 
 298   0.0000       1.463340        39.8195 
 299   0.0000       1.471525        40.0422 
 300   0.0000       1.473105        40.0852 
 301   0.0000       1.480086        40.2752 
 302   0.0000       1.483515        40.3685 
 303   0.0000       1.489435        40.5296 
 304   0.0000       1.494089        40.6562 
 305   0.0000       1.513131        41.1744 
 306   0.0000       1.518074        41.3089 
 307   0.0000       1.528358        41.5887 
 308   0.0000       1.552528        42.2464 
 309   0.0000       1.554587        42.3025 
 310   0.0000       1.565423        42.5973 
 311   0.0000       1.566189        42.6182 
 312   0.0000       1.603270        43.6272 
 313   0.0000       1.608158        43.7602 
 314   0.0000       1.617151        44.0049 
 315   0.0000       1.624926        44.2165 
 316   0.0000       1.628715        44.3196 
 317   0.0000       1.641130        44.6574 
 318   0.0000       1.653643        44.9979 
 319   0.0000       1.658024        45.1171 
 320   0.0000       1.659199        45.1491 
 321   0.0000       1.675591        45.5951 
 322   0.0000       1.676706        45.6255 
 323   0.0000       1.695316        46.1319 
 324   0.0000       1.713274        46.6206 
 325   0.0000       1.722449        46.8702 
 326   0.0000       1.725953        46.9656 
 327   0.0000       1.742922        47.4273 
 328   0.0000       1.743543        47.4442 
 329   0.0000       1.750456        47.6323 
 330   0.0000       1.761023        47.9199 
 331   0.0000       1.770410        48.1753 
 332   0.0000       1.772513        48.2325 
 333   0.0000       1.781269        48.4708 
 334   0.0000       1.788516        48.6680 
 335   0.0000       1.801214        49.0135 
 336   0.0000       1.811070        49.2817 
 337   0.0000       1.819678        49.5159 
 338   0.0000       1.831214        49.8299 
 339   0.0000       1.833243        49.8851 
 340   0.0000       1.839372        50.0519 
 341   0.0000       1.853924        50.4478 
 342   0.0000       1.855912        50.5019 
 343   0.0000       1.859295        50.5940 
 344   0.0000       1.863338        50.7040 
 345   0.0000       1.873069        50.9688 
 346   0.0000       1.876019        51.0491 
 347   0.0000       1.901917        51.7538 
 348   0.0000       1.917982        52.1909 
 349   0.0000       1.920243        52.2525 
 350   0.0000       1.931152        52.5493 
 351   0.0000       1.939212        52.7686 
 352   0.0000       1.946926        52.9785 
 353   0.0000       1.950690        53.0810 
 354   0.0000       1.962117        53.3919 
 355   0.0000       1.964982        53.4699 
 356   0.0000       1.968257        53.5590 
 357   0.0000       1.988357        54.1059 
 358   0.0000       2.003613        54.5211 
 359   0.0000       2.018282        54.9202 
 360   0.0000       2.031151        55.2704 
 361   0.0000       2.047304        55.7100 
 362   0.0000       2.056526        55.9609 
 363   0.0000       2.076792        56.5124 
 364   0.0000       2.078235        56.5516 
 365   0.0000       2.085738        56.7558 
 366   0.0000       2.096387        57.0456 
 367   0.0000       2.123189        57.7749 
 368   0.0000       2.130141        57.9641 
 369   0.0000       2.140909        58.2571 
 370   0.0000       2.151361        58.5415 
 371   0.0000       2.162420        58.8424 
 372   0.0000       2.169434        59.0333 
 373   0.0000       2.196564        59.7716 
 374   0.0000       2.203330        59.9556 
 375   0.0000       2.210177        60.1420 
 376   0.0000       2.218949        60.3807 
 377   0.0000       2.220025        60.4100 
 378   0.0000       2.225965        60.5716 
 379   0.0000       2.230127        60.6848 
 380   0.0000       2.234527        60.8046 
 381   0.0000       2.238090        60.9015 
 382   0.0000       2.246130        61.1203 
 383   0.0000       2.253421        61.3187 
 384   0.0000       2.264124        61.6100 
 385   0.0000       2.280794        62.0636 
 386   0.0000       2.290254        62.3210 
 387   0.0000       2.297781        62.5258 
 388   0.0000       2.300084        62.5885 
 389   0.0000       2.322387        63.1954 
 390   0.0000       2.327935        63.3463 
 391   0.0000       2.336562        63.5811 
 392   0.0000       2.346568        63.8534 
 393   0.0000       2.351624        63.9909 
 394   0.0000       2.389419        65.0194 
 395   0.0000       2.397276        65.2332 
 396   0.0000       2.400529        65.3217 
 397   0.0000       2.411162        65.6111 
 398   0.0000       2.414743        65.7085 
 399   0.0000       2.422332        65.9150 
 400   0.0000       2.433415        66.2166 
 401   0.0000       2.477332        67.4116 
 402   0.0000       2.484466        67.6058 
 403   0.0000       2.493278        67.8455 
 404   0.0000       2.511380        68.3381 
 405   0.0000       2.518629        68.5354 
 406   0.0000       2.527627        68.7802 
 407   0.0000       2.530213        68.8506 
 408   0.0000       2.542142        69.1752 
 409   0.0000       2.549328        69.3708 
 410   0.0000       2.551628        69.4333 
 411   0.0000       2.563211        69.7485 
 412   0.0000       2.583121        70.2903 
 413   0.0000       2.599723        70.7421 
 414   0.0000       2.603806        70.8532 
 415   0.0000       2.615789        71.1792 
 416   0.0000       2.622294        71.3562 
 417   0.0000       2.627265        71.4915 
 418   0.0000       2.631726        71.6129 
 419   0.0000       2.655171        72.2509 
 420   0.0000       2.656467        72.2861 
 421   0.0000       2.662123        72.4401 
 422   0.0000       2.684386        73.0458 
 423   0.0000       2.702407        73.5362 
 424   0.0000       2.738105        74.5076 
 425   0.0000       2.745459        74.7077 
 426   0.0000       2.767845        75.3169 
 427   0.0000       2.776944        75.5645 
 428   0.0000       2.781180        75.6798 
 429   0.0000       2.795772        76.0768 
 430   0.0000       2.806853        76.3784 
 431   0.0000       2.816003        76.6273 
 432   0.0000       2.850551        77.5674 
 433   0.0000       2.856458        77.7282 
 434   0.0000       2.880548        78.3837 
 435   0.0000       2.889404        78.6247 
 436   0.0000       2.892384        78.7058 
 437   0.0000       2.908474        79.1436 
 438   0.0000       2.909460        79.1704 
 439   0.0000       2.911585        79.2282 
 440   0.0000       2.915679        79.3397 
 441   0.0000       2.924499        79.5797 
 442   0.0000       2.928130        79.6785 
 443   0.0000       2.950036        80.2746 
 444   0.0000       2.964744        80.6748 
 445   0.0000       3.012516        81.9747 
 446   0.0000       3.025805        82.3363 
 447   0.0000       3.032755        82.5255 
 448   0.0000       3.042606        82.7935 
 449   0.0000       3.065727        83.4227 
 450   0.0000       3.066792        83.4517 
 451   0.0000       3.156923        85.9042 
 452   0.0000       3.173962        86.3679 
 453   0.0000       3.297322        89.7247 
 454   0.0000       3.320339        90.3510 
 455   0.0000       3.399011        92.4918 
 456   0.0000       3.410652        92.8086 
 457   0.0000       3.429537        93.3224 
 458   0.0000       3.434324        93.4527 
 459   0.0000       3.451552        93.9215 
 460   0.0000       3.457063        94.0715 
 461   0.0000       3.457198        94.0752 
 462   0.0000       3.487618        94.9029 
 463   0.0000       3.511417        95.5505 
 464   0.0000       3.524948        95.9187 
 465   0.0000       3.574748        97.2738 
 466   0.0000       3.577872        97.3588 
 467   0.0000       3.600377        97.9712 
 468   0.0000       3.604946        98.0956 
 469   0.0000       3.801671       103.4487 
 470   0.0000       3.843953       104.5993 
 471   0.0000       3.860959       105.0620 
 472   0.0000       3.994265       108.6895 
 473   0.0000       4.215594       114.7121 
 474   0.0000       4.542237       123.6006 
 475   0.0000       4.559234       124.0631 
 476   0.0000       4.562705       124.1575 
 477   0.0000       4.590795       124.9219 
 478   0.0000       4.618913       125.6870 
 479   0.0000       4.619377       125.6996 
 480   0.0000       5.202093       141.5561 
 481   0.0000       7.007792       190.6917 
 482   0.0000       7.055035       191.9773 
 483   0.0000       7.058742       192.0781 
 484   0.0000      18.725948       509.5589 
 485   0.0000      18.769248       510.7372 
 486   0.0000      19.002527       517.0850 
 487   0.0000      19.019927       517.5585 
 488   0.0000      19.056396       518.5509 
 489   0.0000      19.061697       518.6951 
 490   0.0000      19.251545       523.8612 
 491   0.0000      19.331616       526.0400 
 492   0.0000      19.778601       538.2031 
 493   0.0000      21.672563       589.7404 
 494   0.0000      21.705810       590.6451 
 495   0.0000      22.054318       600.1285 
 496   0.0000      22.091572       601.1422 
 497   0.0000      22.136224       602.3573 
 498   0.0000      22.170691       603.2952 
 499   0.0000      22.238993       605.1538 
 500   0.0000      22.256830       605.6391 
[...]
Total number of batches                      ...      237
Average number of points per batch           ...       59
Average number of grid points per atom       ...      437

Memory available               ... 849.8 MB
Memory needed per perturbation ...  34.9 MB
Perturbations treated per batch... 3
Number of batches              ... 1
     CP-SCF ITERATION   0:   4.3932e-02 (   5.5 sec   0/  3 done)
     CP-SCF ITERATION   1:   1.5308e-03 (   5.6 sec   0/  3 done)
     CP-SCF ITERATION   2:   3.6902e-04 (   5.6 sec   3/  3 done)
                    *** THE CP-SCF HAS CONVERGED ***

Forming final perturbed densities           ... done
Transforming perturbed density to AO basis  ... done

 Raw HFC matrix (all values in MHz): 
 -----------------------------------
                -0.3225              -0.0833              -0.4078
                -0.0838              -0.4582               0.2268
                -0.4076               0.2263               0.6541

 A(FC)          -0.0414              -0.0414              -0.0414
 A(SD)          -0.4316              -0.4641               0.8957
 A(ORB+DIA)      0.0027               0.0025              -0.0077    A(PC) =  -0.0008
 A(ORB)          0.0027               0.0026              -0.0079    A(PC) =  -0.0009
 A(DIA)         -0.0000              -0.0001               0.0002    A(PC) =   0.0000
             ----------           ----------           ----------
 A(Tot)         -0.4703              -0.5029               0.8466    A(iso)=   -0.0422
 Orientation: 
  X          -0.9370302            0.0977057            0.3353029
  Y           0.0371992            0.9825300           -0.1823485
  Z          -0.3472616           -0.1583930           -0.9242949

Notes:  (1) The A matrix conforms to the "SAI" spin Hamiltonian convention.
        (2) Tensor is right-handed.

 Raw EFG matrix (all values in a.u.**-3):
 -----------------------------------
             0.2155      -0.0982       0.0929
            -0.0982      -0.1048      -0.0293
             0.0929      -0.0293      -0.1107

 V(El)       0.6036       0.4835      -1.0871
 V(Nuc)     -0.7344      -0.6209       1.3553
         ----------   ----------   ----------
 V(Tot)     -0.1309      -0.1374       0.2682 
 Orientation: 
  X       0.3570225   -0.0677745    0.9316338
  Y       0.7946762    0.5462332   -0.2648000
  Z      -0.4909426    0.8348868    0.2488763

Note: Tensor is right-handed


 Quadrupole tensor eigenvalues (in MHz;Q= 0.0029 I=  1.0)
  e**2qQ            =     0.180107 MHz 
  e**2qQ/(4I*(2I-1))=     0.045027 MHz 
  eta               =     0.024182
  NOTE: the diagonal representation of the SH term I*Q*I = e**2qQ/(4I(2I-1))*[-(1-eta),-(1+eta),2]

 RHO(0)=      0.431499611 a.u.**-3

 -----------------------------------------------------------
 Nucleus  31H : A:ISTP=    1 I=  0.5 P=533.5514 MHz/au**3
                Q:ISTP=    2 I=  1.0 Q=  0.0029 barn     
 -----------------------------------------------------------
 Solving for nuclear perturbation:
Forming RHS of the CP-SCF equations         ... 
Calc. nucleus orbit integrals (SHARK)       ... done

------------------------------------------------------------------------------
                           ORCA CP-SCF CALCULATION
------------------------------------------------------------------------------

Input orbitals are from        ... input_43.gbw
Input Perturbation             ... input_43.pin.tmp
Wavefunction output            ... input_43.pout.tmp
Perturbation mode              ... Imaginary perturbation
Solver                         ... POPLE
Max. number of iterations      ... 64
Convergence tolerance          ... 1.000e-03
Integral handling              ... Direct
DFT GridXC                     ... 1
COSX GridX                     ... 1
COSX IntAccX                   ... 3.067
COSX Algorithm                 ... Auto
Number of perturbations        ... 3
Number of operators            ... 2
Orbital ranges used for CP-SCF:
 Operator 0:  Orbitals   0...116  to 117...516
 Operator 1:  Orbitals   0...115  to 116...516
Variables per perturbation     ... 93316
DFT calculation                         ... on
XC functional terms                     ... off
Hybrid DFT                              ... on
   Exchange mixing (SCF)                ...  0.200
   Exchange mixing (CP-SCF)             ...  0.200
   GGA exch. scaling(SCF)               ...  0.720
   GGA exch. scaling (CP-SCF)           ...  0.720
   GGA corr. scaling (SCF)              ...  0.810
   GGA corr. scaling (CP-SCF)           ...  0.810

CP-SCF GRID
-----------

General Integration Accuracy     IntAcc      ... 3.467
Radial Grid Type                 RadialGrid  ... OptM3 with GC (2021)
Angular Grid (max. ang.)         AngularGrid ... 1 (Lebedev-50)
Angular grid pruning method      GridPruning ... 4 (adaptive)
Weight generation scheme         WeightScheme... Becke
Basis function cutoff            BFCut       ... 1.0000e-10
Integration weight cutoff        WCut        ... 1.0000e-14
Angular grids for H and He will be reduced by one unit
Partially contracted basis set               ... off
Rotationally invariant grid construction     ... off

Total number of grid points                  ...    31430
Total number of batches                      ...      509
Average number of points per batch           ...       61
Average number of grid points per atom       ...      982

CP-SCF GRIDX
------------

General Integration Accuracy     IntAcc      ... 3.067
Radial Grid Type                 RadialGrid  ... OptM3 with GC (2021)
Angular Grid (max. ang.)         AngularGrid ... 1 (Lebedev-50)
Angular grid pruning method      GridPruning ... 4 (adaptive)
Weight generation scheme         WeightScheme... Becke
Basis function cutoff            BFCut       ... 1.0000e-10
Integration weight cutoff        WCut        ... 1.0000e-14
Angular grids for H and He will be reduced by one unit
Partially contracted basis set               ... on
Rotationally invariant grid construction     ... off

Total number of grid points                  ...    13983
Total number of batches                      ...      237
Average number of points per batch           ...       59
Average number of grid points per atom       ...      437

Memory available               ... 846.7 MB
Memory needed per perturbation ...  34.9 MB
Perturbations treated per batch... 3
Number of batches              ... 1
     CP-SCF ITERATION   0:   4.4409e-02 (   5.5 sec   0/  3 done)
     CP-SCF ITERATION   1:   1.5661e-03 (   5.6 sec   1/  3 done)
     CP-SCF ITERATION   2:   1.9255e-04 (   4.5 sec   3/  3 done)
                    *** THE CP-SCF HAS CONVERGED ***

Forming final perturbed densities           ... done
Transforming perturbed density to AO basis  ... done

 Raw HFC matrix (all values in MHz): 
 -----------------------------------
                -0.0709              -0.1155              -0.3047
                -0.1155              -0.1701               0.2047
                -0.3040               0.2046               0.2415

 A(FC)           0.0005               0.0005               0.0005
 A(SD)          -0.2478              -0.2644               0.5122
 A(ORB+DIA)      0.0014               0.0016              -0.0040    A(PC) =  -0.0003
 A(ORB)          0.0015               0.0017              -0.0041    A(PC) =  -0.0003
 A(DIA)         -0.0001              -0.0000               0.0001    A(PC) =  -0.0000
             ----------           ----------           ----------
 A(Tot)         -0.2459              -0.2622               0.5087    A(iso)=    0.0002
 Orientation: 
  X           0.6340124           -0.5984814           -0.4897431
  Y           0.7699170            0.5478780            0.3271963
  Z           0.0724986           -0.5845081            0.8081425

Notes:  (1) The A matrix conforms to the "SAI" spin Hamiltonian convention.
        (2) Tensor is right-handed.

 Raw EFG matrix (all values in a.u.**-3):
 -----------------------------------
            -0.1035      -0.0819      -0.0675
            -0.0819       0.0906       0.1758
            -0.0675       0.1758       0.0129

 V(El)       0.4927       0.7937      -1.2865
 V(Nuc)     -0.6207      -0.9283       1.5490
         ----------   ----------   ----------
 V(Tot)     -0.1280      -0.1346       0.2626 
 Orientation: 
  X       0.1906791    0.9413043    0.2785456
  Y       0.6576194    0.0881815   -0.7481716
  Z      -0.7288197    0.3258377   -0.6022056

Note: Tensor is right-handed


 Quadrupole tensor eigenvalues (in MHz;Q= 0.0029 I=  1.0)
  e**2qQ            =     0.176308 MHz 
  e**2qQ/(4I*(2I-1))=     0.044077 MHz 
  eta               =     0.025063
  NOTE: the diagonal representation of the SH term I*Q*I = e**2qQ/(4I(2I-1))*[-(1-eta),-(1+eta),2]

 RHO(0)=      0.438840182 a.u.**-3

 -----------------------------------------------------------
 Nucleus   0V : A:ISTP=   51 I=  3.5 P=140.5173 MHz/au**3
                Q:ISTP=   51 I=  3.5 Q= -0.0430 barn     
 -----------------------------------------------------------
 Solving for nuclear perturbation:
Forming RHS of the CP-SCF equations         ... 
Calc. nucleus orbit integrals (SHARK)       ... done

------------------------------------------------------------------------------
                           ORCA CP-SCF CALCULATION
------------------------------------------------------------------------------

Input orbitals are from        ... input_43.gbw
Input Perturbation             ... input_43.pin.tmp
Wavefunction output            ... input_43.pout.tmp
Perturbation mode              ... Imaginary perturbation
Solver                         ... POPLE
Max. number of iterations      ... 64
Convergence tolerance          ... 1.000e-03
Integral handling              ... Direct
DFT GridXC                     ... 1
COSX GridX                     ... 1
COSX IntAccX                   ... 3.067
COSX Algorithm                 ... Auto
Number of perturbations        ... 3
Number of operators            ... 2
Orbital ranges used for CP-SCF:
 Operator 0:  Orbitals   0...116  to 117...516
 Operator 1:  Orbitals   0...115  to 116...516
Variables per perturbation     ... 93316
DFT calculation                         ... on
XC functional terms                     ... off
Hybrid DFT                              ... on
   Exchange mixing (SCF)                ...  0.200
   Exchange mixing (CP-SCF)             ...  0.200
   GGA exch. scaling(SCF)               ...  0.720
   GGA exch. scaling (CP-SCF)           ...  0.720
   GGA corr. scaling (SCF)              ...  0.810
   GGA corr. scaling (CP-SCF)           ...  0.810

CP-SCF GRID
-----------

General Integration Accuracy     IntAcc      ... 3.467
Radial Grid Type                 RadialGrid  ... OptM3 with GC (2021)
Angular Grid (max. ang.)         AngularGrid ... 1 (Lebedev-50)
Angular grid pruning method      GridPruning ... 4 (adaptive)
Weight generation scheme         WeightScheme... Becke
Basis function cutoff            BFCut       ... 1.0000e-10
Integration weight cutoff        WCut        ... 1.0000e-14
Angular grids for H and He will be reduced by one unit
Partially contracted basis set               ... off
Rotationally invariant grid construction     ... off

Total number of grid points                  ...    31430
Total number of batches                      ...      509
Average number of points per batch           ...       61
Average number of grid points per atom       ...      982

CP-SCF GRIDX
------------

General Integration Accuracy     IntAcc      ... 3.067
Radial Grid Type                 RadialGrid  ... OptM3 with GC (2021)
Angular Grid (max. ang.)         AngularGrid ... 1 (Lebedev-50)
Angular grid pruning method      GridPruning ... 4 (adaptive)
Weight generation scheme         WeightScheme... Becke
Basis function cutoff            BFCut       ... 1.0000e-10
Integration weight cutoff        WCut        ... 1.0000e-14
Angular grids for H and He will be reduced by one unit
Partially contracted basis set               ... on
Rotationally invariant grid construction     ... off

Total number of grid points                  ...    13983
Total number of batches                      ...      237
Average number of points per batch           ...       59
Average number of grid points per atom       ...      437

Memory available               ... 843.6 MB
Memory needed per perturbation ...  34.9 MB
Perturbations treated per batch... 3
Number of batches              ... 1
     CP-SCF ITERATION   0:   1.1744e+01 (   5.9 sec   0/  3 done)
     CP-SCF ITERATION   1:   1.8743e+00 (   5.6 sec   0/  3 done)
     CP-SCF ITERATION   2:   3.2321e-01 (   5.6 sec   0/  3 done)
     CP-SCF ITERATION   3:   4.0106e-02 (   5.6 sec   0/  3 done)
     CP-SCF ITERATION   4:   8.0833e-03 (   5.6 sec   0/  3 done)
     CP-SCF ITERATION   5:   2.0087e-03 (   5.6 sec   0/  3 done)
     CP-SCF ITERATION   6:   3.1987e-04 (   5.6 sec   3/  3 done)
                    *** THE CP-SCF HAS CONVERGED ***

Forming final perturbed densities           ... done
Transforming perturbed density to AO basis  ... done

 Raw HFC matrix (all values in MHz): 
 -----------------------------------
              -116.0268              38.4993             -84.4414
                38.4550            -108.8546              91.2706
               -84.5175              91.2486            -304.6245

 A(FC)        -165.4002            -165.4002            -165.4002
 A(SD)         100.8138              88.5692            -189.3830
 A(ORB+DIA)     -6.5247              -7.6614             -19.1192    A(PC) = -11.1018
 A(ORB)         -6.5243              -7.6619             -19.1191    A(PC) = -11.1018
 A(DIA)         -0.0004               0.0005              -0.0001    A(PC) =  -0.0000
             ----------           ----------           ----------
 A(Tot)        -71.1111             -84.4924            -373.9025    A(iso)= -176.5020
 Orientation: 
  X           0.3463507           -0.8749795            0.3383077
  Y           0.9094326            0.2246924           -0.3499223
  Z           0.2301597            0.4288639            0.8735572

Notes:  (1) The A matrix conforms to the "SAI" spin Hamiltonian convention.
        (2) Tensor is right-handed.

 Raw EFG matrix (all values in a.u.**-3):
 -----------------------------------
            -0.1383      -0.0287       0.1547
            -0.0287      -0.0521      -0.1321
             0.1547      -0.1321       0.1904

 V(El)       0.1389      -0.4676       0.3287
 V(Nuc)     -0.2371       0.2637      -0.0266
         ----------   ----------   ----------
 V(Tot)     -0.0982      -0.2040       0.3021 
 Orientation: 
  X       0.3130868   -0.8903695    0.3304826
  Y       0.9158589    0.1909575   -0.3531822
  Z       0.2513545    0.4132521    0.8752391

Note: Tensor is right-handed


 Quadrupole tensor eigenvalues (in MHz;Q=-0.0430 I=  3.5)
  e**2qQ            =    -3.052432 MHz 
  e**2qQ/(4I*(2I-1))=    -0.036338 MHz 
  eta               =     0.350153
  NOTE: the diagonal representation of the SH term I*Q*I = e**2qQ/(4I(2I-1))*[-(1-eta),-(1+eta),2]

 RHO(0)=   8115.216179428 a.u.**-3


--------------------------------------------------------------------------------
----------------------------------------------------------------------------
                           ORCA EULER ANGLE PROGRAM
----------------------------------------------------------------------------

Only g-tensor available        -->  using g-tensor as reference tensor

Reference tensor               ...  g

g-tensor ordering              ...  |g_min> --> |gx>
                                    |g_mid> --> |gy>
                                    |g_max> --> |gz>

A- and EFG-tensor ordering     ...  the axes |Ax>, |Qx>, |Ay>, etc. are assigned
                                    such that the Euler rotation is minimal. You
                                    can find the respective eigenvalues as Ax,
                                    EFGx, Ay, etc. in the tables below.
                                    The relation of |Ax>, |Ay>,  etc. to Amin, Amid, etc.
                                    (as printed in the ORCA EPR/NMR CALCULATION Output)
                                    is obtained in the detailed printout.

Euler rotation around          ...  z - y - z
   First rotation              -->  by alpha around z
   Second rotation             -->  by beta around y'
   Third rotation              -->  by gamma around z''
   Positive / Negative angle   -->  clockwise / counterclockwise rotation

Plot EFG-tensors                    (-)
Plot HFC-tensors                    (-)
Detailed Printout                   (-)

-------------------------------------------------------------------------
          Euler rotation of hyperfine tensor to g-tensor
-------------------------------------------------------------------------

-------------------------------------------------------------------
 Atom  |   Alpha    Beta    Gamma   |   Ax       Ay       Az 
       |          [degrees]         |           [MHz]         
-------------------------------------------------------------------
 19H      -33.2     29.7    -11.4      -0.46     0.81    -0.49
 20H     -119.4     20.6     95.3      -0.26     0.51    -0.25
 21H        1.5     13.7    -34.1      -0.12     0.46    -0.12
 22H     -171.2      8.8    152.7      -0.22     0.45    -0.22
 23H       61.1     23.3    -89.1      -0.28     0.48    -0.27
 24H      139.7     20.1    179.7      -0.55     0.98    -0.58
 26H      115.8     22.1    -87.6      -0.28     0.49    -0.26
 27H       42.4     20.0     -0.6      -0.52     0.95    -0.56
 28H      -20.3      2.6     39.5      -0.22     0.45    -0.22
 29H      179.5     14.2   -146.3      -0.12     0.47    -0.12
 30H     -144.5     27.3   -171.2      -0.47     0.85    -0.50
 31H      -64.3     20.6     89.8      -0.26     0.51    -0.25
  0V     -166.8      0.3    167.3    -373.90   -84.49   -71.11
-------------------------------------------------------------------


-------------------------------------------------------------------------------
    Euler rotation of Electric Field Gradient (EFG) tensor to g-tensor
-------------------------------------------------------------------------------

-------------------------------------------------------------------
 Atom  |   Alpha    Beta    Gamma  |   EFGx     EFGy     EFGz
       |          [degrees]        |         [a.u.**-3]       
-------------------------------------------------------------------
 19H      -72.4     42.8     29.3      0.24    -0.12    -0.12
 20H      135.3     46.7    -98.9     -0.11    -0.12     0.23
 21H       86.8      5.4    -67.4      0.28    -0.14    -0.14
 22H      -64.4      9.6     99.7     -0.14     0.26    -0.12
 23H       -9.9     33.9     42.1     -0.11    -0.13     0.24
 24H      164.6     40.0   -141.3     -0.12     0.23    -0.11
 26H     -160.7     35.4    129.7     -0.13    -0.14     0.27
 27H        9.5     39.6    -36.2     -0.13     0.26    -0.13
 28H     -120.0      6.2     85.1     -0.14     0.28    -0.13
 29H       96.5      3.9   -115.2      0.28    -0.14    -0.14
 30H       10.9     48.1    -46.0     -0.13     0.27    -0.14
 31H       44.5     43.6    -75.5     -0.13    -0.13     0.26
  0V       89.0      2.2    -88.9      0.30    -0.20    -0.10
-------------------------------------------------------------------


Maximum memory used throughout the entire EPRNMR-calculation: 245.2 MB

Timings for individual modules:

Sum of individual times         ...     2586.892 sec (=  43.115 min)
GTO integral calculation        ...        1.236 sec (=   0.021 min)   0.0 %
Spin-Orbit-Coupling Matrices    ...       10.885 sec (=   0.181 min)   0.4 %
SCF iterations                  ...      203.023 sec (=   3.384 min)   7.8 %
EPR/NMR calculation             ...     2371.748 sec (=  39.529 min)  91.7 %
                             ****ORCA TERMINATED NORMALLY****
TOTAL RUN TIME: 0 days 0 hours 43 minutes 7 seconds 945 msec
