
                                 *****************
                                 * O   R   C   A *
                                 *****************

                                            #,                                       
                                            ###                                      
                                            ####                                     
                                            #####                                    
                                            ######                                   
                                           ########,                                 
                                     ,,################,,,,,                         
                               ,,#################################,,                 
                          ,,##########################################,,             
                       ,#########################################, ''#####,          
                    ,#############################################,,   '####,        
                  ,##################################################,,,,####,       
                ,###########''''           ''''###############################       
              ,#####''   ,,,,##########,,,,          '''####'''          '####       
            ,##' ,,,,###########################,,,                        '##       
           ' ,,###''''                  '''############,,,                           
         ,,##''                                '''############,,,,        ,,,,,,###''
      ,#''                                            '''#######################'''  
     '                                                          ''''####''''         
             ,#######,   #######,   ,#######,      ##                                
            ,#'     '#,  ##    ##  ,#'     '#,    #''#        ######   ,####,        
            ##       ##  ##   ,#'  ##            #'  '#       #        #'  '#        
            ##       ##  #######   ##           ,######,      #####,   #    #        
            '#,     ,#'  ##    ##  '#,     ,#' ,#      #,         ##   #,  ,#        
             '#######'   ##     ##  '#######'  #'      '#     #####' # '####'        



                  #######################################################
                  #                        -***-                        #
                  #          Department of theory and spectroscopy      #
                  #    Directorship and core code : Frank Neese         #
                  #        Max Planck Institute fuer Kohlenforschung    #
                  #                Kaiser Wilhelm Platz 1               #
                  #                 D-45470 Muelheim/Ruhr               #
                  #                      Germany                        #
                  #                                                     #
                  #                  All rights reserved                #
                  #                        -***-                        #
                  #######################################################


                         Program Version 5.0.4 -  RELEASE  -


 With contributions from (in alphabetic order):
   Daniel Aravena         : Magnetic Suceptibility
   Michael Atanasov       : Ab Initio Ligand Field Theory (pilot matlab implementation)
   Alexander A. Auer      : GIAO ZORA, VPT2 properties, NMR spectrum
   Ute Becker             : Parallelization
   Giovanni Bistoni       : ED, misc. LED, open-shell LED, HFLD
   Martin Brehm           : Molecular dynamics
   Dmytro Bykov           : SCF Hessian
   Vijay G. Chilkuri      : MRCI spin determinant printing, contributions to CSF-ICE
   Dipayan Datta          : RHF DLPNO-CCSD density
   Achintya Kumar Dutta   : EOM-CC, STEOM-CC
   Dmitry Ganyushin       : Spin-Orbit,Spin-Spin,Magnetic field MRCI
   Miquel Garcia          : C-PCM and meta-GGA Hessian, CC/C-PCM, Gaussian charge scheme
   Yang Guo               : DLPNO-NEVPT2, F12-NEVPT2, CIM, IAO-localization
   Andreas Hansen         : Spin unrestricted coupled pair/coupled cluster methods
   Benjamin Helmich-Paris : MC-RPA, TRAH-SCF, COSX integrals
   Lee Huntington         : MR-EOM, pCC
   Robert Izsak           : Overlap fitted RIJCOSX, COSX-SCS-MP3, EOM
   Marcus Kettner         : VPT2
   Christian Kollmar      : KDIIS, OOCD, Brueckner-CCSD(T), CCSD density, CASPT2, CASPT2-K
   Simone Kossmann        : Meta GGA functionals, TD-DFT gradient, OOMP2, MP2 Hessian
   Martin Krupicka        : Initial AUTO-CI
   Lucas Lang             : DCDCAS
   Marvin Lechner         : AUTO-CI (C++ implementation), FIC-MRCC
   Dagmar Lenk            : GEPOL surface, SMD
   Dimitrios Liakos       : Extrapolation schemes; Compound Job, initial MDCI parallelization
   Dimitrios Manganas     : Further ROCIS development; embedding schemes
   Dimitrios Pantazis     : SARC Basis sets
   Anastasios Papadopoulos: AUTO-CI, single reference methods and gradients
   Taras Petrenko         : DFT Hessian,TD-DFT gradient, ASA, ECA, R-Raman, ABS, FL, XAS/XES, NRVS
   Peter Pinski           : DLPNO-MP2, DLPNO-MP2 Gradient
   Christoph Reimann      : Effective Core Potentials
   Marius Retegan         : Local ZFS, SOC
   Christoph Riplinger    : Optimizer, TS searches, QM/MM, DLPNO-CCSD(T), (RO)-DLPNO pert. Triples
   Tobias Risthaus        : Range-separated hybrids, TD-DFT gradient, RPA, STAB
   Michael Roemelt        : Original ROCIS implementation
   Masaaki Saitow         : Open-shell DLPNO-CCSD energy and density
   Barbara Sandhoefer     : DKH picture change effects
   Avijit Sen             : IP-ROCIS
   Kantharuban Sivalingam : CASSCF convergence, NEVPT2, FIC-MRCI
   Bernardo de Souza      : ESD, SOC TD-DFT
   Georgi Stoychev        : AutoAux, RI-MP2 NMR, DLPNO-MP2 response
   Willem Van den Heuvel  : Paramagnetic NMR
   Boris Wezisla          : Elementary symmetry handling
   Frank Wennmohs         : Technical directorship


 We gratefully acknowledge several colleagues who have allowed us to
 interface, adapt or use parts of their codes:
   Stefan Grimme, W. Hujo, H. Kruse, P. Pracht,  : VdW corrections, initial TS optimization,
                  C. Bannwarth, S. Ehlert          DFT functionals, gCP, sTDA/sTD-DF
   Ed Valeev, F. Pavosevic, A. Kumar             : LibInt (2-el integral package), F12 methods
   Garnet Chan, S. Sharma, J. Yang, R. Olivares  : DMRG
   Ulf Ekstrom                                   : XCFun DFT Library
   Mihaly Kallay                                 : mrcc  (arbitrary order and MRCC methods)
   Jiri Pittner, Ondrej Demel                    : Mk-CCSD
   Frank Weinhold                                : gennbo (NPA and NBO analysis)
   Christopher J. Cramer and Donald G. Truhlar   : smd solvation model
   Lars Goerigk                                  : TD-DFT with DH, B97 family of functionals
   V. Asgeirsson, H. Jonsson                     : NEB implementation
   FAccTs GmbH                                   : IRC, NEB, NEB-TS, DLPNO-Multilevel, CI-OPT
                                                   MM, QMMM, 2- and 3-layer-ONIOM, Crystal-QMMM,
                                                   LR-CPCM, SF, NACMEs, symmetry and pop. for TD-DFT,
                                                   nearIR, NL-DFT gradient (VV10), updates on ESD,
                                                   ML-optimized integration grids
   S Lehtola, MJT Oliveira, MAL Marques          : LibXC Library
   Liviu Ungur et al                             : ANISO software


 Your calculation uses the libint2 library for the computation of 2-el integrals
 For citations please refer to: http://libint.valeyev.net

 Your ORCA version has been built with support for libXC version: 5.1.0
 For citations please refer to: https://tddft.org/programs/libxc/

 This ORCA versions uses:
   CBLAS   interface :  Fast vector & matrix operations
   LAPACKE interface :  Fast linear algebra routines
   SCALAPACK package :  Parallel linear algebra routines
   Shared memory     :  Shared parallel matrices
   BLAS/LAPACK       :  OpenBLAS 0.3.15  USE64BITINT DYNAMIC_ARCH NO_AFFINITY Prescott SINGLE_THREADED
        Core in use  :  Prescott
   Copyright (c) 2011-2014, The OpenBLAS Project


================================================================================

----- Orbital basis set information -----
Your calculation utilizes the basis: TZVP 

The basis set includes element-specific modifications.

Your calculation utilizes the basis: CP(PPP) 

----- AuxJ basis set information -----
Your calculation utilizes the auxiliary basis: def2/J
   F. Weigend, Phys. Chem. Chem. Phys. 8, 1057 (2006).

================================================================================
                                        WARNINGS
                       Please study these warnings very carefully!
================================================================================


WARNING: your system is open-shell and RHF/RKS was chosen
  ===> : WILL SWITCH to UHF/UKS


INFO   : the flag for use of the SHARK integral package has been found!

================================================================================
                                       INPUT FILE
================================================================================
NAME = input_87.inp
|  1> ! nofrozencore ReducedPop printbasis
|  2> ! B3LYP TZVP
|  3> 
|  4> %basis
|  5> newgto V "CP(PPP)" end
|  6> end
|  7> 
|  8> %pal
|  9> nprocs 4
| 10> end
| 11> 
| 12> % sym SymThresh 1e-2 end
| 13> * xyz -2 2 
| 14> V 0.11662255075739968 1.054534419518491 0.3442105958009384
| 15> S -1.5686586309131183 1.0353424302064196 -1.4348309850156729
| 16> S -1.5954220472671388 -0.008667254621854813 1.7355907589778337
| 17> S 1.6723899938232316 0.6904483818998023 -1.51217918498367
| 18> S 1.648872084844752 -0.32480551460806967 1.6698540199406378
| 19> O 0.280372257962618 2.565891987935246 0.8323117248895721
| 20> C -0.6824807596162676 -0.7204710670223481 3.0721232247049075
| 21> C 0.6699833520195695 -0.8533355743490839 3.0438681577980575
| 22> C -0.6262514415222611 1.240538687011392 -2.9163240374636596
| 23> C 0.7251415392013125 1.0968851535487676 -2.9488666985220013
| 24> S -1.6881051244612935 -1.2824981464529908 4.46054970235891
| 25> S 1.602078192358353 -1.6115940609967003 4.3898177515918535
| 26> S 1.6870153462657633 1.2684527587884857 -4.465620486700441
| 27> S -1.601226868653502 1.6191169956855551 -4.38689616236392
| 28> C 1.0458016383930022 -3.375702477858362 4.287223415543144
| 29> C 1.1444153700957271 -0.18647839753201872 -5.464798381506545
| 30> C -1.5233755749302513 -3.116987554883069 4.424766428177198
| 31> C -1.425805796233138 0.08836570195225751 -5.4040446133619655
| 32> C -0.2569708897698603 -3.7026276021174467 5.03195159033132
| 33> H -1.6065455985437564 -3.507200590858413 2.947541749664131
| 34> H -2.2299937777290553 -3.4329892687322103 4.80271793026284
| 35> H -0.3641324336469841 -4.7994422446529335 5.0520916697657166
| 36> H -0.2026531158465314 -3.3684230428353996 6.074304229487621
| 37> H 2.0304347366510536 -4.041566818675007 4.886070006550863
| 38> H 1.0357283106004698 -3.5617525327221053 3.663324597654072
| 39> C -0.15663503009815324 -0.018196589125647523 -6.248215256879948
| 40> H -2.300849496620825 0.09003400930747987 -6.061636812150388
| 41> H -1.5202744124363943 -0.761969814732652 -4.725267334540074
| 42> H -0.07733191992723859 0.8646168030958079 -6.891856171114481
| 43> H -0.265772995681124 -0.8905819183335587 -6.912749798933417
| 44> H 1.0875812626908956 -1.0400632486335097 -4.785765230938369
| 45> H 1.9681928007368412 -0.36813860043826874 -6.162271679845187
| 46> * 
| 47> 
| 48> % eprnmr
| 49> gtensor true
| 50> Nuclei = all H {aiso,adip,aorb,fgrad,rho}
| 51> Nuclei = all V {aiso,adip,aorb,fgrad,rho}
| 52> end
| 53> 
| 54>                          ****END OF INPUT****
================================================================================

------------------------------------------------------------------------------
                            SYMMETRY HANDLING SETUP
------------------------------------------------------------------------------

------------------
SYMMETRY DETECTION
------------------
The point group will now be determined using a tolerance of 1.0000e-02.
Splitting atom subsets according to nuclear charge, mass and basis set.
Splitting atom subsets according to distance from the molecule's center.
Identifying relative distance patterns of the atoms.
Splitting atom subsets according to atoms' relative distance patterns.
Bring atoms of each subset into input order.
The molecule is neither linear nor planar.

WARNING (ORCA_SYM): A non-planar off-center atom subset has been encountered
in function TSymmetryFinder::FilterSubsetShapes() which cannot occur under
regular conditions. The full point group may not be assigned correctly. If the
symmetry appears to be too low, please try increasing the cleaning tolerance
using option SymThresh in the %symmetry input block. If the problem persists,
you may post a message in the ORCA forum.

WARNING (ORCA_SYM): A non-planar off-center atom subset has been encountered
in function TSymmetryFinder::FilterSubsetShapes() which cannot occur under
regular conditions. The full point group may not be assigned correctly. If the
symmetry appears to be too low, please try increasing the cleaning tolerance
using option SymThresh in the %symmetry input block. If the problem persists,
you may post a message in the ORCA forum.
There is at least one atom subset not centered around the molecule's center.
The molecule does not have a center of inversion.
Analyzing the first atom subset for its symmetry.
The atom subset represents a 4-gon with alternating side lengths
that is not centered around the molecule's center.
Testing point group C2v.
Test failed.
Testing point group C2.
Test failed.
Testing point group Cs.
Test failed.
Testing point group Cs.
Test failed.
No testing is needed for point group C1.
This point group has been found:    C1
Largest non-degenerate subgroup:    C1


Mass-centered symmetry-perfected Cartesians (point group C1):

Atom          Symmetry-perfected Cartesians (x, y, z; au)
  0       0.220605502754    1.994850321819    0.651300695912
  1      -2.964114389254    1.958582718054   -2.710600672690
  2      -3.014689916571   -0.014309667433    3.280628152487
  3       3.160579898220    1.306827421535   -2.856767587581
  4       3.116137491008   -0.611724399261    3.156403718769
  5       0.530047603882    4.850902216556    1.573678155547
  6      -1.289480906562   -1.359423933951    5.806308481805
  7       1.266305870387   -1.610501465717    5.752914143456
  8      -1.183222894667    2.346347447121   -5.510216811124
  9       1.370539738204    2.074881610707   -5.571713528193
 10      -3.189835549717   -2.421501193923    8.430054281656
 11       3.027709849468   -3.043402344203    8.296390265789
 12       3.188217808948    2.399097398062   -8.437962800438
 13      -3.025659439248    3.061756770758   -8.289195387364
 14       1.976499507752   -6.377084122616    8.102515067765
 15       2.162852453714   -0.350324031093  -10.326135380689
 16      -2.878541814940   -5.888183771435    8.362433693278
 17      -2.694161654255    0.169056046457  -10.211327397292
 18      -0.485383785272   -6.994883073764    9.509847362330
 19      -3.035710382121   -6.625579543314    5.570883612618
 20      -4.213856699473   -6.485340468459    9.076658524124
 21      -0.687889755288   -9.067562367831    9.547906596776
 22      -0.382738068352   -6.363327984013   11.479608385305
 23       3.837186405854   -7.635385369104    9.234171121002
 24       1.957463676967   -6.728667773510    6.923517166677
 25      -0.295776489081   -0.032317499884  -11.806578723838
 26      -4.347754603201    0.172208690465  -11.453996560806
 27      -2.872681467129   -1.437845202024   -8.928624234391
 28      -0.145915329289    1.635958038773  -13.022883780327
 29      -0.502017354846   -1.680886855337  -13.062367014849
 30       2.055451555653   -1.963365631739   -9.042948690262
 31       3.719566192931   -0.693612064018  -11.644168900272


------------------
SYMMETRY REDUCTION
------------------
ORCA supports only abelian point groups.
It is now checked, if the determined point group is supported:
Point Group ( C1    ) is          ... supported

The point group is C1 - hence turning off symmetry
If this is a round-off problem, please increase the symmetry
        detection tolerance (%method SymThresh)

Storing the symmetry object:
Symmetry file                     ... input_87.sym.tmp
Writing symmetry information      ... done

                       ****************************
                       * Single Point Calculation *
                       ****************************

---------------------------------
CARTESIAN COORDINATES (ANGSTROEM)
---------------------------------
  V      0.116739    1.055629    0.344653
  S     -1.568542    1.036437   -1.434388
  S     -1.595305   -0.007572    1.736034
  S      1.672507    0.691543   -1.511736
  S      1.648989   -0.323711    1.670297
  O      0.280489    2.566987    0.832755
  C     -0.682364   -0.719376    3.072566
  C      0.670100   -0.852241    3.044311
  C     -0.626135    1.241634   -2.915881
  C      0.725258    1.097980   -2.948424
  S     -1.687988   -1.281403    4.460993
  S      1.602195   -1.610499    4.390261
  S      1.687132    1.269548   -4.465178
  S     -1.601110    1.620212   -4.386453
  C      1.045918   -3.374608    4.287666
  C      1.144532   -0.185383   -5.464355
  C     -1.523259   -3.115893    4.425209
  C     -1.425689    0.089461   -5.403602
  C     -0.256854   -3.701533    5.032394
  H     -1.606429   -3.506106    2.947985
  H     -2.229877   -3.431894    4.803161
  H     -0.364016   -4.798347    5.052535
  H     -0.202536   -3.367328    6.074747
  H      2.030552   -4.040472    4.886513
  H      1.035845   -3.560658    3.663767
  C     -0.156518   -0.017102   -6.247772
  H     -2.300733    0.091129   -6.061194
  H     -1.520158   -0.760875   -4.724824
  H     -0.077215    0.865712   -6.891413
  H     -0.265656   -0.889487   -6.912307
  H      1.087698   -1.038968   -4.785322
  H      1.968310   -0.367044   -6.161829

----------------------------
CARTESIAN COORDINATES (A.U.)
----------------------------
  NO LB      ZA    FRAG     MASS         X           Y           Z
   0 V    23.0000    0    50.940    0.220606    1.994850    0.651301
   1 S    16.0000    0    32.060   -2.964114    1.958583   -2.710601
   2 S    16.0000    0    32.060   -3.014690   -0.014310    3.280628
   3 S    16.0000    0    32.060    3.160580    1.306827   -2.856768
   4 S    16.0000    0    32.060    3.116137   -0.611724    3.156404
   5 O     8.0000    0    15.999    0.530048    4.850902    1.573678
   6 C     6.0000    0    12.011   -1.289481   -1.359424    5.806308
   7 C     6.0000    0    12.011    1.266306   -1.610501    5.752914
   8 C     6.0000    0    12.011   -1.183223    2.346347   -5.510217
   9 C     6.0000    0    12.011    1.370540    2.074882   -5.571714
  10 S    16.0000    0    32.060   -3.189836   -2.421501    8.430054
  11 S    16.0000    0    32.060    3.027710   -3.043402    8.296390
  12 S    16.0000    0    32.060    3.188218    2.399097   -8.437963
  13 S    16.0000    0    32.060   -3.025659    3.061757   -8.289195
  14 C     6.0000    0    12.011    1.976500   -6.377084    8.102515
  15 C     6.0000    0    12.011    2.162852   -0.350324  -10.326135
  16 C     6.0000    0    12.011   -2.878542   -5.888184    8.362434
  17 C     6.0000    0    12.011   -2.694162    0.169056  -10.211327
  18 C     6.0000    0    12.011   -0.485384   -6.994883    9.509847
  19 H     1.0000    0     1.008   -3.035710   -6.625580    5.570884
  20 H     1.0000    0     1.008   -4.213857   -6.485340    9.076659
  21 H     1.0000    0     1.008   -0.687890   -9.067562    9.547907
  22 H     1.0000    0     1.008   -0.382738   -6.363328   11.479608
  23 H     1.0000    0     1.008    3.837186   -7.635385    9.234171
  24 H     1.0000    0     1.008    1.957464   -6.728668    6.923517
  25 C     6.0000    0    12.011   -0.295776   -0.032317  -11.806579
  26 H     1.0000    0     1.008   -4.347755    0.172209  -11.453997
  27 H     1.0000    0     1.008   -2.872681   -1.437845   -8.928624
  28 H     1.0000    0     1.008   -0.145915    1.635958  -13.022884
  29 H     1.0000    0     1.008   -0.502017   -1.680887  -13.062367
  30 H     1.0000    0     1.008    2.055452   -1.963366   -9.042949
  31 H     1.0000    0     1.008    3.719566   -0.693612  -11.644169

--------------------------------
INTERNAL COORDINATES (ANGSTROEM)
--------------------------------
 V      0   0   0     0.000000000000     0.00000000     0.00000000
 S      1   0   0     2.450618277093     0.00000000     0.00000000
 S      1   2   0     2.448965753946    85.88786491     0.00000000
 S      1   2   3     2.449317047239    83.42128821   145.67930159
 S      1   2   3     2.451060541185   144.89775142    72.41990979
 O      1   2   3     1.596639714663   107.44986858   252.41580091
 C      3   1   2     1.768175753139   104.07977406   161.61860080
 C      7   3   1     1.359268369152   122.50481847   346.58488244
 C      2   1   3     1.767783493212   103.93776503   198.78587955
 C      9   2   1     1.359396318523   122.53117139    13.70762167
 S      7   3   1     1.804129398085   114.79197611   167.63800340
 S      8   7   3     1.804255257161   122.65611682   181.36712895
 S     10   9   2     1.804211383912   122.68801694   178.57376198
 S      9   2   1     1.804572246778   114.78833167   192.42067917
 C     12   8   7     1.852578664652   101.75671042    67.57125557
 C     13  10   9     1.846509103482   102.90386319   292.69413459
 C     11   7   3     1.842218134978   104.20694642   111.98374430
 C     14   9   2     1.846229413503   102.92571492   248.63664670
 C     17  11   7     1.521653348388   116.73887392    80.20123116
 H     17  11   7     1.530155618583   105.53560841   318.44749902
 H     17  11   7     0.861402174139   106.46518022   205.42438995
 H     19  17  11     1.102221202557   108.02064027   172.86624197
 H     19  17  11     1.095966300743   107.66162035    57.74065112
 H     15  12   8     1.330975168107   103.25817907   157.64990794
 H     15  12   8     0.651126585090   109.25658136    43.54731175
 C     18  14   9     1.527996737846   116.17519725   277.34666715
 H     18  14   9     1.094592052203   104.70007907   156.57278959
 H     18  14   9     1.092123346801   107.15312483    42.27788358
 H     26  18  14     1.095409555940   109.18065174   304.70012092
 H     26  18  14     1.102076864711   107.82314119   188.89716571
 H     16  13  10     1.092210251447   107.13736463   317.84373782
 H     16  13  10     1.094567808064   104.73938516   203.52453194

---------------------------
INTERNAL COORDINATES (A.U.)
---------------------------
 V      0   0   0     0.000000000000     0.00000000     0.00000000
 S      1   0   0     4.630997402487     0.00000000     0.00000000
 S      1   2   0     4.627874586311    85.88786491     0.00000000
 S      1   2   3     4.628538434426    83.42128821   145.67930159
 S      1   2   3     4.631833160500   144.89775142    72.41990979
 O      1   2   3     3.017211795255   107.44986858   252.41580091
 C      3   1   2     3.341367930072   104.07977406   161.61860080
 C      7   3   1     2.568644960198   122.50481847   346.58488244
 C      2   1   3     3.340626666238   103.93776503   198.78587955
 C      9   2   1     2.568886749469   122.53117139    13.70762167
 S      7   3   1     3.409310472537   114.79197611   167.63800340
 S      8   7   3     3.409548311722   122.65611682   181.36712895
 S     10   9   2     3.409465403297   122.68801694   178.57376198
 S      9   2   1     3.410147335286   114.78833167   192.42067917
 C     12   8   7     3.500866317737   101.75671042    67.57125557
 C     13  10   9     3.489396509373   102.90386319   292.69413459
 C     11   7   3     3.481287754052   104.20694642   111.98374430
 C     14   9   2     3.488867971910   102.92571492   248.63664670
 C     17  11   7     2.875508099218   116.73887392    80.20123116
 H     17  11   7     2.891575061403   105.53560841   318.44749902
 H     17  11   7     1.627814200287   106.46518022   205.42438995
 H     19  17  11     2.082896211834   108.02064027   172.86624197
 H     19  17  11     2.071076160412   107.66162035    57.74065112
 H     15  12   8     2.515178558772   103.25817907   157.64990794
 H     15  12   8     1.230450924336   109.25658136    43.54731175
 C     18  14   9     2.887495368055   116.17519725   277.34666715
 H     18  14   9     2.068479207030   104.70007907   156.57278959
 H     18  14   9     2.063814029916   107.15312483    42.27788358
 H     26  18  14     2.070024065207   109.18065174   304.70012092
 H     26  18  14     2.082623452834   107.82314119   188.89716571
 H     16  13  10     2.063978255895   107.13736463   317.84373782
 H     16  13  10     2.068433392247   104.73938516   203.52453194

---------------------
BASIS SET INFORMATION
---------------------
There are 5 groups of distinct atoms

 Group   1 Type V   : 17s11p5d1f contracted to 17s7p3d1f pattern {11111111111111111/3311111/311/1}
 Group   2 Type S   : 14s9p1d contracted to 5s4p1d pattern {73211/6111/1}
 Group   3 Type O   : 11s6p1d contracted to 5s3p1d pattern {62111/411/1}
 Group   4 Type C   : 11s6p1d contracted to 5s3p1d pattern {62111/411/1}
 Group   5 Type H   : 5s1p contracted to 3s1p pattern {311/1}

Atom   0V    basis set group =>   1
Atom   1S    basis set group =>   2
Atom   2S    basis set group =>   2
Atom   3S    basis set group =>   2
Atom   4S    basis set group =>   2
Atom   5O    basis set group =>   3
Atom   6C    basis set group =>   4
Atom   7C    basis set group =>   4
Atom   8C    basis set group =>   4
Atom   9C    basis set group =>   4
Atom  10S    basis set group =>   2
Atom  11S    basis set group =>   2
Atom  12S    basis set group =>   2
Atom  13S    basis set group =>   2
Atom  14C    basis set group =>   4
Atom  15C    basis set group =>   4
Atom  16C    basis set group =>   4
Atom  17C    basis set group =>   4
Atom  18C    basis set group =>   4
Atom  19H    basis set group =>   5
Atom  20H    basis set group =>   5
Atom  21H    basis set group =>   5
Atom  22H    basis set group =>   5
Atom  23H    basis set group =>   5
Atom  24H    basis set group =>   5
Atom  25C    basis set group =>   4
Atom  26H    basis set group =>   5
Atom  27H    basis set group =>   5
Atom  28H    basis set group =>   5
Atom  29H    basis set group =>   5
Atom  30H    basis set group =>   5
Atom  31H    basis set group =>   5

-------------------------
BASIS SET IN INPUT FORMAT
-------------------------

 # Basis set for element : H 
 NewGTO H 
 S 3 
   1      34.0613410000      0.0254393168
   2       5.1235746000      0.1900859340
   3       1.1646626000      0.8524411390
 S 1 
   1       0.3272304100      1.0000000000
 S 1 
   1       0.1030724100      1.0000000000
 P 1 
   1       0.8000000000      1.0000000000
  end;

 # Basis set for element : C 
 NewGTO C 
 S 6 
   1   13575.3496820000      0.0006064601
   2    2035.2333680000      0.0046978985
   3     463.2256235900      0.0243324735
   4     131.2001959800      0.0973999560
   5      42.8530158900      0.3019558443
   6      15.5841857700      0.6623361013
 S 2 
   1       6.2067138500      0.6559530795
   2       2.5764896500      0.3758563390
 S 1 
   1       0.5769633900      1.0000000000
 S 1 
   1       0.2297283100      1.0000000000
 S 1 
   1       0.0951644400      1.0000000000
 P 4 
   1      34.6972322400      0.0113272290
   2       7.9582622800      0.0761696612
   3       2.3780826900      0.3019225154
   4       0.8143320800      0.7278502776
 P 1 
   1       0.2888754700      1.0000000000
 P 1 
   1       0.1005682400      1.0000000000
 D 1 
   1       0.8000000000      1.0000000000
  end;

 # Basis set for element : O 
 NewGTO O 
 S 6 
   1   27032.3826310000      0.0005722654
   2    4052.3871392000      0.0044353333
   3     922.3272271000      0.0230201034
   4     261.2407098900      0.0928224938
   5      85.3546413500      0.2937849971
   6      31.0350352400      0.6740160462
 S 2 
   1      12.2608607300      0.6383993750
   2       4.9987076000      0.3953458663
 S 1 
   1       1.1703108200      1.0000000000
 S 1 
   1       0.4647474100      1.0000000000
 S 1 
   1       0.1850453600      1.0000000000
 P 4 
   1      63.2749548000      0.0120183316
   2      14.6270493800      0.0830054304
   3       4.4501223500      0.3199174388
   4       1.5275799600      0.7071554258
 P 1 
   1       0.5293511800      1.0000000000
 P 1 
   1       0.1747842100      1.0000000000
 D 1 
   1       1.2000000000      1.0000000000
  end;

 # Basis set for element : S 
 NewGTO S 
 S 7 
   1   60700.9281040000      0.0005238013
   2    9102.6106854000      0.0040506304
   3    2071.4166009000      0.0208270003
   4     586.0247682100      0.0814968475
   5     190.5539502100      0.2374911358
   6      67.6303842600      0.4472617145
   7      25.1273069100      0.3489191913
 S 3 
   1     112.5746301000      0.1004556993
   2      34.7955542200      0.4339117282
   3       6.5115556200     -1.2084330582
 S 2 
   1       3.2399032300      0.6749812922
   2       1.5477160900      0.3470879597
 S 1 
   1       0.4054103000      1.0000000000
 S 1 
   1       0.1455065100      1.0000000000
 P 6 
   1     564.3671602700      0.0025564845
   2     133.4262437900      0.0202874255
   3      42.4682711900      0.0927670112
   4      15.6165275800      0.2650208365
   5       6.1093988500      0.4486298663
   6       2.4404160200      0.3596369916
 P 1 
   1       0.8388220100      1.0000000000
 P 1 
   1       0.3128874700      1.0000000000
 P 1 
   1       0.1077010900      1.0000000000
 D 1 
   1       0.5500000000      1.0000000000
  end;

 # Basis set for element : V 
 NewGTO V 
 S 1 
   1  4239814.9912500000      1.0000000000
 S 1 
   1  1695925.9965000001      1.0000000000
 S 1 
   1  678370.3986000001      1.0000000000
 S 1 
   1  271348.1594400000      1.0000000000
 S 1 
   1   40672.0050780000      1.0000000000
 S 1 
   1    9257.0761385000      1.0000000000
 S 1 
   1    2622.7328773000      1.0000000000
 S 1 
   1     858.5948018500      1.0000000000
 S 1 
   1     314.1941865000      1.0000000000
 S 1 
   1     124.4786212700      1.0000000000
 S 1 
   1      50.4693993090      1.0000000000
 S 1 
   1      12.5138469110      1.0000000000
 S 1 
   1       5.3447758082      1.0000000000
 S 1 
   1       1.5755631295      1.0000000000
 S 1 
   1       0.6306903307      1.0000000000
 S 1 
   1       0.0879544416      1.0000000000
 S 1 
   1       0.0342969197      1.0000000000
 P 3 
   1    1450.0319327000     -0.0222847647
   2     343.7504988400     -0.1817959329
   3     110.8252170800     -0.8607412073
 P 3 
   1      41.8224645460     -0.2522537814
   2      17.0880737100     -0.4620379520
   3       7.2613218939     -0.3990010670
 P 1 
   1       2.9458145262      1.0000000000
 P 1 
   1       1.1650209680      1.0000000000
 P 1 
   1       0.4339937839      1.0000000000
 D 3 
   1      27.3603358640      0.0575501019
   2       7.4542765527      0.3023798347
   3       2.4632270217      0.7724212088
 D 1 
   1       0.8249954244      1.0000000000
 D 1 
   1       0.2526297057      1.0000000000
 P 1 
   1       0.1112480000      1.0000000000
 P 1 
   1       0.0363780000      1.0000000000
 F 1 
   1       1.8000000000      1.0000000000
  end;

---------------------------------
AUXILIARY/J BASIS SET INFORMATION
---------------------------------
There are 5 groups of distinct atoms

 Group   1 Type V   : 19s5p5d3f3g contracted to 8s5p5d2f3g pattern {121111111/11111/11111/21/111}
 Group   2 Type S   : 14s5p5d2f1g contracted to 8s4p3d1f1g pattern {71111111/2111/311/2/1}
 Group   3 Type O   : 12s5p4d2f1g contracted to 6s4p3d1f1g pattern {711111/2111/211/2/1}
 Group   4 Type C   : 12s5p4d2f1g contracted to 6s4p3d1f1g pattern {711111/2111/211/2/1}
 Group   5 Type H   : 5s2p1d contracted to 3s1p1d pattern {311/2/1}

Atom   0V    basis set group =>   1
Atom   1S    basis set group =>   2
Atom   2S    basis set group =>   2
Atom   3S    basis set group =>   2
Atom   4S    basis set group =>   2
Atom   5O    basis set group =>   3
Atom   6C    basis set group =>   4
Atom   7C    basis set group =>   4
Atom   8C    basis set group =>   4
Atom   9C    basis set group =>   4
Atom  10S    basis set group =>   2
Atom  11S    basis set group =>   2
Atom  12S    basis set group =>   2
Atom  13S    basis set group =>   2
Atom  14C    basis set group =>   4
Atom  15C    basis set group =>   4
Atom  16C    basis set group =>   4
Atom  17C    basis set group =>   4
Atom  18C    basis set group =>   4
Atom  19H    basis set group =>   5
Atom  20H    basis set group =>   5
Atom  21H    basis set group =>   5
Atom  22H    basis set group =>   5
Atom  23H    basis set group =>   5
Atom  24H    basis set group =>   5
Atom  25C    basis set group =>   4
Atom  26H    basis set group =>   5
Atom  27H    basis set group =>   5
Atom  28H    basis set group =>   5
Atom  29H    basis set group =>   5
Atom  30H    basis set group =>   5
Atom  31H    basis set group =>   5

-------------------------------------
AUXILIARY/J BASIS SET IN INPUT FORMAT
-------------------------------------

 # Auxiliary/J basis set for element : H 
 NewAuxJGTO H 
 S 3 
   1      15.6752927000      0.1007184237
   2       3.6063578000      0.3404257499
   3       1.2080016000      0.6491996172
 S 1 
   1       0.4726794000      1.0000000000
 S 1 
   1       0.2018100000      1.0000000000
 P 2 
   1       2.0281365000      0.5596620919
   2       0.5358730000      0.5596620919
 D 1 
   1       2.2165124000      1.0000000000
  end;

 # Auxiliary/J basis set for element : C 
 NewAuxJGTO C 
 S 7 
   1    1861.0916331000      0.0134602335
   2     642.9939764000      0.0299160374
   3     235.1105725000      0.1008649584
   4      90.7028894000      0.2370970548
   5      36.7794552000      0.3924037254
   6      15.6046273000      0.3195862154
   7       6.8907294000      0.0530104441
 S 1 
   1       3.1478850000     -1.0000000000
 S 1 
   1       1.4777287000      1.0000000000
 S 1 
   1       0.7076466000      1.0000000000
 S 1 
   1       0.3430122000      1.0000000000
 S 1 
   1       0.1669453000      1.0000000000
 P 2 
   1      13.5472892000     -0.6769313712
   2       5.4669419000     -0.3779500978
 P 1 
   1       2.1751721000      1.0000000000
 P 1 
   1       0.8582194000      1.0000000000
 P 1 
   1       0.3376720000      1.0000000000
 D 2 
   1       5.9287253000     -0.3533329857
   2       1.9809209000     -0.7456525731
 D 1 
   1       0.8055417000     -1.0000000000
 D 1 
   1       0.3531244000     -1.0000000000
 F 2 
   1       1.6755626000      0.6311076882
   2       0.5997536000      0.4968166032
 G 1 
   1       1.0024600000     -1.0000000000
  end;

 # Auxiliary/J basis set for element : O 
 NewAuxJGTO O 
 S 7 
   1    2876.8216605000      0.0168151159
   2    1004.7443032000      0.0340137548
   3     369.7579954000      0.1194951309
   4     142.9442404000      0.2664627624
   5      57.8366425000      0.4202764046
   6      24.3864983000      0.2765077335
   7      10.6622662000      0.0057008815
 S 1 
   1       4.8070437000     -1.0000000000
 S 1 
   1       2.2210770000      1.0000000000
 S 1 
   1       1.0447795000      1.0000000000
 S 1 
   1       0.4968425000      1.0000000000
 S 1 
   1       0.2371384000      1.0000000000
 P 2 
   1      64.2613382000     -0.2731534179
   2      16.3006076000     -0.8168011598
 P 1 
   1       4.3550542000      1.0000000000
 P 1 
   1       1.2019554000      1.0000000000
 P 1 
   1       0.3354196000      1.0000000000
 D 2 
   1       9.2146611000     -0.4661230638
   2       2.8435251000     -0.6600908911
 D 1 
   1       0.9955759000     -1.0000000000
 D 1 
   1       0.3649441000     -1.0000000000
 F 2 
   1       2.6420115000      0.5931563945
   2       0.7345613000      0.5931563945
 G 1 
   1       1.3931000000     -1.0000000000
  end;

 # Auxiliary/J basis set for element : S 
 NewAuxJGTO S 
 S 7 
   1    7399.0303145000      0.0295137551
   2    2710.1675859000      0.0559686311
   3    1034.3279062000      0.1764696370
   4     410.4645411000      0.3577969368
   5     168.9762502000      0.4299293578
   6      71.9687889000      0.1259148089
   7      31.6172683000     -0.0646025788
 S 1 
   1      14.2796836000      1.0000000000
 S 1 
   1       6.6060948000      1.0000000000
 S 1 
   1       3.1181477000      1.0000000000
 S 1 
   1       1.4954039000     -1.0000000000
 S 1 
   1       0.7254779000      1.0000000000
 S 1 
   1       0.3544216000      1.0000000000
 S 1 
   1       0.1735525000      1.0000000000
 P 2 
   1      12.6998799000      1.4059102813
   2       4.4295784000     -1.2124994202
 P 1 
   1       1.5232889000      1.0000000000
 P 1 
   1       0.5194667000     -1.0000000000
 P 1 
   1       0.1766547000     -1.0000000000
 D 3 
   1      16.8546461000      1.0295742104
   2       5.0810461000     -0.7461553923
   3       1.5102323000      0.8357028005
 D 1 
   1       0.4451331000      1.0000000000
 D 1 
   1       0.1308362000      1.0000000000
 F 2 
   1       1.0809860000      0.5572698934
   2       0.4161474000      0.5572698934
 G 1 
   1       0.6707100000     -1.0000000000
  end;

 # Auxiliary/J basis set for element : V 
 NewAuxJGTO V 
 S 12 
   1   11942.0842430000      0.0459866720
   2    2430.7110193000      0.1744615821
   3     841.0764301000      0.2900402792
   4     494.7508273000      0.1411212903
   5     291.0298903000      0.2660697186
   6     171.1940483000      0.0446365706
   7      59.2366916000     -0.0408204801
   8      34.8451117000      0.1394665381
   9      20.4971240000      0.2164746715
  10      12.0571314000      0.0864266611
  11       7.0924300000     -0.0568501658
  12       4.1720176000     -0.0126212852
 S 1 
   1       2.4541279000      1.0000000000
 S 1 
   1       1.4436046000      1.0000000000
 S 1 
   1       0.8491792000      1.0000000000
 S 1 
   1       0.2938336000      1.0000000000
 S 1 
   1       0.1728433000      1.0000000000
 S 1 
   1       0.1016725000      1.0000000000
 S 1 
   1       0.0598074000      1.0000000000
 P 1 
   1      16.7130979000     -1.0000000000
 P 1 
   1       4.7454037000     -1.0000000000
 P 1 
   1       1.3889998000      1.0000000000
 P 1 
   1       0.4142440000     -1.0000000000
 P 1 
   1       0.1243234000      1.0000000000
 D 1 
   1       7.7143225000      1.0000000000
 D 1 
   1       3.1170731000      1.0000000000
 D 1 
   1       1.2767950000     -1.0000000000
 D 1 
   1       0.5273386000      1.0000000000
 D 1 
   1       0.2184050000      1.0000000000
 F 2 
   1       3.1309344000     -1.0825667766
   2       1.0419780000      0.1809223232
 F 1 
   1       0.3559044000      1.0000000000
 G 1 
   1       8.7130110000      1.0000000000
 G 1 
   1       2.7493872000      1.0000000000
 G 1 
   1       0.8775089000      1.0000000000
  end;



           ************************************************************
           *        Program running with 4 parallel MPI-processes     *
           *              working on a common directory               *
           ************************************************************
------------------------------------------------------------------------------
                           ORCA GTO INTEGRAL CALCULATION
                           -- RI-GTO INTEGRALS CHOSEN --
------------------------------------------------------------------------------
------------------------------------------------------------------------------
                   ___                                                        
                  /   \      - P O W E R E D   B Y -                         
                 /     \                                                     
                 |  |  |   _    _      __       _____    __    __             
                 |  |  |  | |  | |    /  \     |  _  \  |  |  /  |          
                  \  \/   | |  | |   /    \    | | | |  |  | /  /          
                 / \  \   | |__| |  /  /\  \   | |_| |  |  |/  /          
                |  |  |   |  __  | /  /__\  \  |    /   |      \           
                |  |  |   | |  | | |   __   |  |    \   |  |\   \          
                \     /   | |  | | |  |  |  |  | |\  \  |  | \   \       
                 \___/    |_|  |_| |__|  |__|  |_| \__\ |__|  \__/        
                                                                              
                      - O R C A' S   B I G   F R I E N D -                    
                                      &                                       
                       - I N T E G R A L  F E E D E R -                       
                                                                              
 v1 FN, 2020, v2 2021                                                         
------------------------------------------------------------------------------


Reading SHARK input file input_87.SHARKINP.tmp ... ok
----------------------
SHARK INTEGRAL PACKAGE
----------------------

Number of atoms                             ...     32
Number of basis functions                   ...    517
Number of shells                            ...    255
Maximum angular momentum                    ...      3
Integral batch strategy                     ... SHARK/LIBINT Hybrid
RI-J (if used) integral strategy            ... SPLIT-RIJ (Revised 2003 algorithm where possible)
Printlevel                                  ...      1
Contraction scheme used                     ... SEGMENTED contraction
Coulomb Range Separation                    ... NOT USED
Exchange Range Separation                   ... NOT USED
Finite Nucleus Model                        ... NOT USED
Auxiliary Coulomb fitting basis             ... AVAILABLE
   # of basis functions in Aux-J            ...   1168
   # of shells in Aux-J                     ...    384
   Maximum angular momentum in Aux-J        ...      4
Auxiliary J/K fitting basis                 ... NOT available
Auxiliary Correlation fitting basis         ... NOT available
Auxiliary 'external' fitting basis          ... NOT available
Integral threshold                          ...     1.000000e-10
Primitive cut-off                           ...     1.000000e-11
Primitive pair pre-selection threshold      ...     1.000000e-11

Calculating pre-screening integrals         ... done (  0.1 sec) Dimension = 255
Organizing shell pair data                  ... done (  0.1 sec)
Shell pair information
Total number of shell pairs                 ...     32640
Shell pairs after pre-screening             ...     17830
Total number of primitive shell pairs       ...    123863
Primitive shell pairs kept                  ...     41661
          la=0 lb=0:   5377 shell pairs
          la=1 lb=0:   7066 shell pairs
          la=1 lb=1:   2304 shell pairs
          la=2 lb=0:   1673 shell pairs
          la=2 lb=1:   1119 shell pairs
          la=2 lb=2:    154 shell pairs
          la=3 lb=0:     72 shell pairs
          la=3 lb=1:     52 shell pairs
          la=3 lb=2:     12 shell pairs
          la=3 lb=3:      1 shell pairs

Calculating one electron integrals          ... done (  0.0 sec)
Calculating RI/J V-Matrix + Cholesky decomp.... done (  0.1 sec)
Calculating Nuclear repulsion               ... done (  0.0 sec) ENN=   3213.551322656750 Eh

SHARK setup successfully completed in   0.5 seconds

Maximum memory used throughout the entire GTOINT-calculation: 31.9 MB


           ************************************************************
           *        Program running with 4 parallel MPI-processes     *
           *              working on a common directory               *
           ************************************************************
-------------------------------------------------------------------------------
                                 ORCA SCF
-------------------------------------------------------------------------------

------------
SCF SETTINGS
------------
Hamiltonian:
 Density Functional     Method          .... DFT(GTOs)
 Exchange Functional    Exchange        .... B88
   X-Alpha parameter    XAlpha          ....  0.666667
   Becke's b parameter  XBeta           ....  0.004200
 Correlation Functional Correlation     .... LYP
 LDA part of GGA corr.  LDAOpt          .... VWN-5
 Gradients option       PostSCFGGA      .... off
 Hybrid DFT is turned on
   Fraction HF Exchange ScalHFX         ....  0.200000
   Scaling of DF-GGA-X  ScalDFX         ....  0.720000
   Scaling of DF-GGA-C  ScalDFC         ....  0.810000
   Scaling of DF-LDA-C  ScalLDAC        ....  1.000000
   Perturbative correction              ....  0.000000
   Density functional embedding theory  .... OFF
   NL short-range parameter             ....  4.800000
 RI-approximation to the Coulomb term is turned on
   Number of AuxJ basis functions       .... 1168
   RIJ-COSX (HFX calculated with COS-X)).... on


General Settings:
 Integral files         IntName         .... input_87
 Hartree-Fock type      HFTyp           .... UHF
 Total Charge           Charge          ....   -2
 Multiplicity           Mult            ....    2
 Number of Electrons    NEL             ....  233
 Basis Dimension        Dim             ....  517
 Nuclear Repulsion      ENuc            ....   3213.5513226567 Eh

Convergence Acceleration:
 DIIS                   CNVDIIS         .... on
   Start iteration      DIISMaxIt       ....    12
   Startup error        DIISStart       ....  0.200000
   # of expansion vecs  DIISMaxEq       ....     5
   Bias factor          DIISBfac        ....   1.050
   Max. coefficient     DIISMaxC        ....  10.000
 Trust-Rad. Augm. Hess. CNVTRAH         .... auto
   Auto Start mean grad. ratio tolernc. ....  1.125000
   Auto Start start iteration           ....    20
   Auto Start num. interpolation iter.  ....    10
   Max. Number of Micro iterations      ....    16
   Max. Number of Macro iterations      .... Maxiter - #DIIS iter
   Number of Davidson start vectors     ....     2
   Converg. threshold I  (grad. norm)   ....   5.000e-05
   Converg. threshold II (energy diff.) ....   1.000e-06
   Grad. Scal. Fac. for Micro threshold ....   0.100
   Minimum threshold for Micro iter.    ....   0.010
   NR start threshold (gradient norm)   ....   0.001
   Initial trust radius                 ....   0.400
   Minimum AH scaling param. (alpha)    ....   1.000
   Maximum AH scaling param. (alpha)    .... 1000.000
   Orbital update algorithm             .... Taylor
   White noise on init. David. guess    .... on
   Maximum white noise                  ....   0.010
   Quad. conv. algorithm                .... NR
 SOSCF                  CNVSOSCF        .... off
 Level Shifting         CNVShift        .... on
   Level shift para.    LevelShift      ....    0.2500
   Turn off err/grad.   ShiftErr        ....    0.0010
 Zerner damping         CNVZerner       .... off
 Static damping         CNVDamp         .... on
   Fraction old density DampFac         ....    0.7000
   Max. Damping (<1)    DampMax         ....    0.9800
   Min. Damping (>=0)   DampMin         ....    0.0000
   Turn off err/grad.   DampErr         ....    0.1000
 Fernandez-Rico         CNVRico         .... off

SCF Procedure:
 Maximum # iterations   MaxIter         ....   125
 SCF integral mode      SCFMode         .... Direct
   Integral package                     .... SHARK and LIBINT hybrid scheme
 Reset frequency        DirectResetFreq ....    20
 Integral Threshold     Thresh          ....  1.000e-10 Eh
 Primitive CutOff       TCut            ....  1.000e-11 Eh

Convergence Tolerance:
 Convergence Check Mode ConvCheckMode   .... Total+1el-Energy
 Convergence forced     ConvForced      .... 0
 Energy Change          TolE            ....  1.000e-06 Eh
 1-El. energy change                    ....  1.000e-03 Eh
 DIIS Error             TolErr          ....  1.000e-06


Diagonalization of the overlap matrix:
Smallest eigenvalue                        ... 1.771e-04
Time for diagonalization                   ...    0.086 sec
Threshold for overlap eigenvalues          ... 1.000e-08
Number of eigenvalues below threshold      ... 0
Time for construction of square roots      ...    0.072 sec
Total time needed                          ...    0.159 sec

Time for model grid setup =    0.356 sec

------------------------------
INITIAL GUESS: MODEL POTENTIAL
------------------------------
Loading Hartree-Fock densities                     ... done
Calculating cut-offs                               ... done
Initializing the effective Hamiltonian             ... done
Setting up the integral package (SHARK)            ... done
Starting the Coulomb interaction                   ... done (   0.4 sec)
Reading the grid                                   ... done
Mapping shells                                     ... done
Starting the XC term evaluation                    ... done (   0.2 sec)
  promolecular density results
     # of electrons  =    230.997019552
     EX              =   -307.603742598
     EC              =     -9.027767695
     EX+EC           =   -316.631510293
Transforming the Hamiltonian                       ... done (   0.1 sec)
Diagonalizing the Hamiltonian                      ... done (   0.1 sec)
Back transforming the eigenvectors                 ... done (   0.0 sec)
Now organizing SCF variables                       ... done
                      ------------------
                      INITIAL GUESS DONE (   1.2 sec)
                      ------------------
-------------------
DFT GRID GENERATION
-------------------

General Integration Accuracy     IntAcc      ... 4.388
Radial Grid Type                 RadialGrid  ... OptM3 with GC (2021)
Angular Grid (max. ang.)         AngularGrid ... 4 (Lebedev-302)
Angular grid pruning method      GridPruning ... 4 (adaptive)
Weight generation scheme         WeightScheme... Becke
Basis function cutoff            BFCut       ... 1.0000e-10
Integration weight cutoff        WCut        ... 1.0000e-14
Angular grids for H and He will be reduced by one unit
Partially contracted basis set               ... off
Rotationally invariant grid construction     ... off

Total number of grid points                  ...   184039
Total number of batches                      ...     2891
Average number of points per batch           ...       63
Average number of grid points per atom       ...     5751
Time for grid setup =    1.592 sec

--------------------
COSX GRID GENERATION
--------------------

GRIDX 1
-------
General Integration Accuracy     IntAcc      ... 3.816
Radial Grid Type                 RadialGrid  ... OptM3 with GC (2021)
Angular Grid (max. ang.)         AngularGrid ... 1 (Lebedev-50)
Angular grid pruning method      GridPruning ... 4 (adaptive)
Weight generation scheme         WeightScheme... Becke
Basis function cutoff            BFCut       ... 1.0000e-10
Integration weight cutoff        WCut        ... 1.0000e-14
Angular grids for H and He will be reduced by one unit
Partially contracted basis set               ... on
Rotationally invariant grid construction     ... off

Total number of grid points                  ...    22783
Total number of batches                      ...      374
Average number of points per batch           ...       60
Average number of grid points per atom       ...      712
UseSFitting                                  ... on

GRIDX 2
-------
General Integration Accuracy     IntAcc      ... 4.020
Radial Grid Type                 RadialGrid  ... OptM3 with GC (2021)
Angular Grid (max. ang.)         AngularGrid ... 2 (Lebedev-110)
Angular grid pruning method      GridPruning ... 4 (adaptive)
Weight generation scheme         WeightScheme... Becke
Basis function cutoff            BFCut       ... 1.0000e-10
Integration weight cutoff        WCut        ... 1.0000e-14
Angular grids for H and He will be reduced by one unit
Partially contracted basis set               ... on
Rotationally invariant grid construction     ... off

Total number of grid points                  ...    49169
Total number of batches                      ...      786
Average number of points per batch           ...       62
Average number of grid points per atom       ...     1537
UseSFitting                                  ... on

GRIDX 3
-------
General Integration Accuracy     IntAcc      ... 4.338
Radial Grid Type                 RadialGrid  ... OptM3 with GC (2021)
Angular Grid (max. ang.)         AngularGrid ... 3 (Lebedev-194)
Angular grid pruning method      GridPruning ... 4 (adaptive)
Weight generation scheme         WeightScheme... Becke
Basis function cutoff            BFCut       ... 1.0000e-10
Integration weight cutoff        WCut        ... 1.0000e-14
Angular grids for H and He will be reduced by one unit
Partially contracted basis set               ... on
Rotationally invariant grid construction     ... off

Total number of grid points                  ...   112107
Total number of batches                      ...     1770
Average number of points per batch           ...       63
Average number of grid points per atom       ...     3503
UseSFitting                                  ... on

Time for X-Grid setup             =    1.801 sec

--------------
SCF ITERATIONS
--------------
ITER       Energy         Delta-E        Max-DP      RMS-DP      [F,P]     Damp
               ***  Starting incremental Fock matrix formation  ***
  0  -4591.4584899956   0.000000000000 0.06855535  0.00092765  0.2361724 0.7000
  1  -4591.7982103067  -0.339720311016 0.11062400  0.00092495  0.1560096 0.7000
                               ***Turning on DIIS***
  2  -4591.9636879351  -0.165477628395 0.07984695  0.00059213  0.1091641 0.7000
  3  -4592.0544462948  -0.090758359788 0.11165027  0.00095822  0.0772165 0.0000
  4  -4592.2702900806  -0.215843785780 0.06605435  0.00050331  0.0147939 0.0000
  5  -4592.2761579462  -0.005867865591 0.01389063  0.00011944  0.0133198 0.0000
  6  -4592.2776059270  -0.001447980779 0.00332730  0.00004777  0.0038007 0.0000
  7  -4592.2778505755  -0.000244648493 0.00151095  0.00002262  0.0015138 0.0000
  8  -4592.2779264564  -0.000075880896 0.00109664  0.00001591  0.0010773 0.0000
  9  -4592.2779640628  -0.000037606465 0.00188676  0.00002184  0.0007865 0.0000
               *** Restarting incremental Fock matrix formation ***
                                   *** Resetting DIIS ***
 10  -4592.2780093458  -0.000045282974 0.00082475  0.00001270  0.0006461 0.0000
 11  -4592.2779932991   0.000016046763 0.00030295  0.00000366  0.0017667 0.0000
 12  -4592.2780155487  -0.000022249686 0.00034352  0.00000571  0.0007342 0.0000
 13  -4592.2780207160  -0.000005167243 0.00047446  0.00000487  0.0002735 0.0000
 14  -4592.2780230592  -0.000002343213 0.00036805  0.00000328  0.0001354 0.0000
 15  -4592.2780237147  -0.000000655528 0.00015244  0.00000173  0.0001409 0.0000
 16  -4592.2780239585  -0.000000243820 0.00014694  0.00000114  0.0000747 0.0000
 17  -4592.2780240320  -0.000000073468 0.00002893  0.00000028  0.0000273 0.0000
 18  -4592.2780240115   0.000000020466 0.00004091  0.00000034  0.0000229 0.0000
 19  -4592.2780240992  -0.000000087703 0.00001480  0.00000014  0.0000182 0.0000
 20  -4592.2780240323   0.000000066910 0.00000850  0.00000012  0.0000116 0.0000
                 **** Energy Check signals convergence ****

               *****************************************************
               *                     SUCCESS                       *
               *           SCF CONVERGED AFTER  21 CYCLES          *
               *****************************************************

Old exchange energy                            =    -61.789194211 Eh
New exchange energy                            =    -61.789212129 Eh
Exchange energy change after final integration =     -0.000017918 Eh
Total energy after final integration           =  -4592.278042125 Eh
Final COS-X integration done in                =    25.004 sec

----------------
TOTAL SCF ENERGY
----------------

Total Energy       :        -4592.27804212 Eh         -124962.23848 eV

Components:
Nuclear Repulsion  :         3213.55132266 Eh           87445.17712 eV
Electronic Energy  :        -7805.82936478 Eh         -212407.41560 eV
One Electron Energy:       -12789.41589568 Eh         -348017.69940 eV
Two Electron Energy:         4983.58653090 Eh          135610.28380 eV
Max COSX asymmetry :            0.00000138 Eh               0.00004 eV

Virial components:
Potential Energy   :        -9174.43914211 Eh         -249649.18098 eV
Kinetic Energy     :         4582.16109998 Eh          124686.94249 eV
Virial Ratio       :            2.00220790


DFT components:
N(Alpha)           :      116.999923998227 electrons
N(Beta)            :      115.999923381908 electrons
N(Total)           :      232.999847380135 electrons
E(X)               :     -245.607667252549 Eh       
E(C)               :      -10.627329659641 Eh       
E(XC)              :     -256.234996912190 Eh       
DFET-embed. en.    :        0.000000000000 Eh       

---------------
SCF CONVERGENCE
---------------

  Last Energy change         ...   -1.7459e-07  Tolerance :   1.0000e-06
  Last MAX-Density change    ...    0.0000e+00  Tolerance :   1.0000e-05
  Last RMS-Density change    ...    0.0000e+00  Tolerance :   1.0000e-06
  Last DIIS Error            ...    3.5745e-06  Tolerance :   1.0000e-06

             **** THE GBW FILE WAS UPDATED (input_87.gbw) ****
             **** DENSITY input_87.scfp WAS UPDATED ****
             **** ENERGY FILE WAS UPDATED (input_87.en.tmp) ****
----------------------
UHF SPIN CONTAMINATION
----------------------

Warning: in a DFT calculation there is little theoretical justification to 
         calculate <S**2> as in Hartree-Fock theory. We will do it anyways
         but you should keep in mind that the values have only limited relevance

Expectation value of <S**2>     :     0.764880
Ideal value S*(S+1) for S=0.5   :     0.750000
Deviation                       :     0.014880

             **** THE GBW FILE WAS UPDATED (input_87.gbw) ****
             **** DENSITY input_87.scfp WAS UPDATED ****
----------------
ORBITAL ENERGIES
----------------
                 SPIN UP ORBITALS
  NO   OCC          E(Eh)            E(eV) 
   0   1.0000    -196.641010     -5350.8739 
   1   1.0000     -88.682008     -2413.1601 
   2   1.0000     -88.679191     -2413.0835 
   3   1.0000     -88.676758     -2413.0173 
   4   1.0000     -88.676731     -2413.0165 
   5   1.0000     -88.613983     -2411.3091 
   6   1.0000     -88.612813     -2411.2772 
   7   1.0000     -88.612493     -2411.2685 
   8   1.0000     -88.612487     -2411.2684 
   9   1.0000     -22.016839      -599.1087 
  10   1.0000     -18.858045      -513.1535 
  11   1.0000     -18.523662      -504.0545 
  12   1.0000     -18.517887      -503.8973 
  13   1.0000     -18.517854      -503.8964 
  14   1.0000     -10.024688      -272.7856 
  15   1.0000     -10.015523      -272.5362 
  16   1.0000     -10.015507      -272.5358 
  17   1.0000     -10.009843      -272.3817 
  18   1.0000     -10.009637      -272.3761 
  19   1.0000     -10.004785      -272.2440 
  20   1.0000      -9.994275      -271.9581 
  21   1.0000      -9.993257      -271.9303 
  22   1.0000      -9.992234      -271.9025 
  23   1.0000      -9.991520      -271.8831 
  24   1.0000      -7.735459      -210.4925 
  25   1.0000      -7.732603      -210.4148 
  26   1.0000      -7.730408      -210.3551 
  27   1.0000      -7.730389      -210.3546 
  28   1.0000      -7.668342      -208.6662 
  29   1.0000      -7.667277      -208.6372 
  30   1.0000      -7.666940      -208.6280 
  31   1.0000      -7.666889      -208.6266 
  32   1.0000      -5.700717      -155.1244 
  33   1.0000      -5.697899      -155.0477 
  34   1.0000      -5.696731      -155.0159 
  35   1.0000      -5.695649      -154.9865 
  36   1.0000      -5.695636      -154.9861 
  37   1.0000      -5.694047      -154.9429 
  38   1.0000      -5.691755      -154.8805 
  39   1.0000      -5.691746      -154.8803 
  40   1.0000      -5.690340      -154.8420 
  41   1.0000      -5.687224      -154.7572 
  42   1.0000      -5.685167      -154.7013 
  43   1.0000      -5.685131      -154.7003 
  44   1.0000      -5.633255      -153.2887 
  45   1.0000      -5.632122      -153.2578 
  46   1.0000      -5.631782      -153.2486 
  47   1.0000      -5.631730      -153.2472 
  48   1.0000      -5.626765      -153.1121 
  49   1.0000      -5.626295      -153.0993 
  50   1.0000      -5.625693      -153.0829 
  51   1.0000      -5.625372      -153.0741 
  52   1.0000      -5.625346      -153.0735 
  53   1.0000      -5.625257      -153.0710 
  54   1.0000      -5.624908      -153.0615 
  55   1.0000      -5.624885      -153.0609 
  56   1.0000      -2.410526       -65.5937 
  57   1.0000      -1.451875       -39.5075 
  58   1.0000      -1.440315       -39.1930 
  59   1.0000      -1.439225       -39.1633 
  60   1.0000      -0.658062       -17.9068 
  61   1.0000      -0.644040       -17.5252 
  62   1.0000      -0.619093       -16.8464 
  63   1.0000      -0.600490       -16.3402 
  64   1.0000      -0.594372       -16.1737 
  65   1.0000      -0.593898       -16.1608 
  66   1.0000      -0.576131       -15.6773 
  67   1.0000      -0.506424       -13.7805 
  68   1.0000      -0.493692       -13.4341 
  69   1.0000      -0.490657       -13.3514 
  70   1.0000      -0.487335       -13.2611 
  71   1.0000      -0.444128       -12.0853 
  72   1.0000      -0.427789       -11.6407 
  73   1.0000      -0.421743       -11.4762 
  74   1.0000      -0.410520       -11.1708 
  75   1.0000      -0.388328       -10.5669 
  76   1.0000      -0.374764       -10.1979 
  77   1.0000      -0.295455        -8.0397 
  78   1.0000      -0.292979        -7.9724 
  79   1.0000      -0.286160        -7.7868 
  80   1.0000      -0.277839        -7.5604 
  81   1.0000      -0.260469        -7.0877 
  82   1.0000      -0.255826        -6.9614 
  83   1.0000      -0.245970        -6.6932 
  84   1.0000      -0.240652        -6.5485 
  85   1.0000      -0.201727        -5.4893 
  86   1.0000      -0.194574        -5.2946 
  87   1.0000      -0.192393        -5.2353 
  88   1.0000      -0.186034        -5.0622 
  89   1.0000      -0.184642        -5.0244 
  90   1.0000      -0.177991        -4.8434 
  91   1.0000      -0.175139        -4.7658 
  92   1.0000      -0.156802        -4.2668 
  93   1.0000      -0.151628        -4.1260 
  94   1.0000      -0.146682        -3.9914 
  95   1.0000      -0.143057        -3.8928 
  96   1.0000      -0.126536        -3.4432 
  97   1.0000      -0.098579        -2.6825 
  98   1.0000      -0.096745        -2.6326 
  99   1.0000      -0.090762        -2.4698 
 100   1.0000      -0.084660        -2.3037 
 101   1.0000      -0.082476        -2.2443 
 102   1.0000      -0.081083        -2.2064 
 103   1.0000      -0.070795        -1.9264 
 104   1.0000      -0.051094        -1.3903 
 105   1.0000      -0.039515        -1.0753 
 106   1.0000      -0.039098        -1.0639 
 107   1.0000      -0.036848        -1.0027 
 108   1.0000      -0.033071        -0.8999 
 109   1.0000      -0.014250        -0.3877 
 110   1.0000      -0.005423        -0.1476 
 111   1.0000      -0.004482        -0.1220 
 112   1.0000       0.005344         0.1454 
 113   1.0000       0.009546         0.2597 
 114   1.0000       0.015337         0.4173 
 115   1.0000       0.032691         0.8896 
 116   1.0000       0.058917         1.6032 
 117   0.0000       0.175466         4.7747 
 118   0.0000       0.183821         5.0020 
 119   0.0000       0.191460         5.2099 
 120   0.0000       0.196399         5.3443 
 121   0.0000       0.202316         5.5053 
 122   0.0000       0.210557         5.7296 
 123   0.0000       0.214209         5.8289 
 124   0.0000       0.217764         5.9257 
 125   0.0000       0.225313         6.1311 
 126   0.0000       0.226678         6.1682 
 127   0.0000       0.233912         6.3651 
 128   0.0000       0.236195         6.4272 
 129   0.0000       0.242829         6.6077 
 130   0.0000       0.245482         6.6799 
 131   0.0000       0.246176         6.6988 
 132   0.0000       0.251111         6.8331 
 133   0.0000       0.254093         6.9142 
 134   0.0000       0.259050         7.0491 
 135   0.0000       0.265675         7.2294 
 136   0.0000       0.271042         7.3754 
 137   0.0000       0.274729         7.4758 
 138   0.0000       0.277104         7.5404 
 139   0.0000       0.281227         7.6526 
 140   0.0000       0.282128         7.6771 
 141   0.0000       0.284735         7.7480 
 142   0.0000       0.289185         7.8691 
 143   0.0000       0.291113         7.9216 
 144   0.0000       0.297984         8.1086 
 145   0.0000       0.309615         8.4250 
 146   0.0000       0.312604         8.5064 
 147   0.0000       0.323897         8.8137 
 148   0.0000       0.328089         8.9278 
 149   0.0000       0.339242         9.2312 
 150   0.0000       0.347321         9.4511 
 151   0.0000       0.359388         9.7795 
 152   0.0000       0.370349        10.0777 
 153   0.0000       0.374868        10.2007 
 154   0.0000       0.392993        10.6939 
 155   0.0000       0.394803        10.7431 
 156   0.0000       0.395795        10.7701 
 157   0.0000       0.400152        10.8887 
 158   0.0000       0.404366        11.0034 
 159   0.0000       0.413440        11.2503 
 160   0.0000       0.421541        11.4707 
 161   0.0000       0.425069        11.5667 
 162   0.0000       0.426572        11.6076 
 163   0.0000       0.428883        11.6705 
 164   0.0000       0.444191        12.0871 
 165   0.0000       0.452544        12.3143 
 166   0.0000       0.454180        12.3589 
 167   0.0000       0.455284        12.3889 
 168   0.0000       0.460542        12.5320 
 169   0.0000       0.460737        12.5373 
 170   0.0000       0.470655        12.8072 
 171   0.0000       0.475578        12.9411 
 172   0.0000       0.477075        12.9819 
 173   0.0000       0.482710        13.1352 
 174   0.0000       0.487800        13.2737 
 175   0.0000       0.492799        13.4097 
 176   0.0000       0.498502        13.5649 
 177   0.0000       0.500411        13.6169 
 178   0.0000       0.501080        13.6351 
 179   0.0000       0.503332        13.6964 
 180   0.0000       0.510807        13.8998 
 181   0.0000       0.512185        13.9373 
 182   0.0000       0.517911        14.0931 
 183   0.0000       0.520474        14.1628 
 184   0.0000       0.532198        14.4818 
 185   0.0000       0.533065        14.5054 
 186   0.0000       0.538364        14.6496 
 187   0.0000       0.550226        14.9724 
 188   0.0000       0.551003        14.9935 
 189   0.0000       0.556157        15.1338 
 190   0.0000       0.558928        15.2092 
 191   0.0000       0.563273        15.3274 
 192   0.0000       0.568542        15.4708 
 193   0.0000       0.574874        15.6431 
 194   0.0000       0.575888        15.6707 
 195   0.0000       0.577595        15.7172 
 196   0.0000       0.579754        15.7759 
 197   0.0000       0.582045        15.8383 
 198   0.0000       0.583519        15.8784 
 199   0.0000       0.586646        15.9635 
 200   0.0000       0.589347        16.0369 
 201   0.0000       0.591605        16.0984 
 202   0.0000       0.598771        16.2934 
 203   0.0000       0.602913        16.4061 
 204   0.0000       0.605097        16.4655 
 205   0.0000       0.615762        16.7557 
 206   0.0000       0.622417        16.9368 
 207   0.0000       0.626819        17.0566 
 208   0.0000       0.630169        17.1478 
 209   0.0000       0.631156        17.1746 
 210   0.0000       0.638153        17.3650 
 211   0.0000       0.644906        17.5488 
 212   0.0000       0.647880        17.6297 
 213   0.0000       0.651085        17.7169 
 214   0.0000       0.653520        17.7832 
 215   0.0000       0.660833        17.9822 
 216   0.0000       0.663937        18.0667 
 217   0.0000       0.667333        18.1591 
 218   0.0000       0.672512        18.3000 
 219   0.0000       0.675518        18.3818 
 220   0.0000       0.684526        18.6269 
 221   0.0000       0.692717        18.8498 
 222   0.0000       0.703232        19.1359 
 223   0.0000       0.715846        19.4792 
 224   0.0000       0.720622        19.6091 
 225   0.0000       0.731124        19.8949 
 226   0.0000       0.732945        19.9445 
 227   0.0000       0.744305        20.2536 
 228   0.0000       0.750271        20.4159 
 229   0.0000       0.770850        20.9759 
 230   0.0000       0.773382        21.0448 
 231   0.0000       0.791103        21.5270 
 232   0.0000       0.797538        21.7021 
 233   0.0000       0.801721        21.8159 
 234   0.0000       0.831262        22.6198 
 235   0.0000       0.847507        23.0619 
 236   0.0000       0.867808        23.6143 
 237   0.0000       0.872173        23.7330 
 238   0.0000       0.881064        23.9750 
 239   0.0000       0.888564        24.1791 
 240   0.0000       0.900938        24.5158 
 241   0.0000       0.904062        24.6008 
 242   0.0000       0.913043        24.8452 
 243   0.0000       0.914425        24.8828 
 244   0.0000       0.919135        25.0109 
 245   0.0000       0.927003        25.2250 
 246   0.0000       0.933222        25.3943 
 247   0.0000       0.950902        25.8754 
 248   0.0000       0.961719        26.1697 
 249   0.0000       0.974033        26.5048 
 250   0.0000       0.976379        26.5686 
 251   0.0000       0.981827        26.7169 
 252   0.0000       0.986389        26.8410 
 253   0.0000       0.987977        26.8842 
 254   0.0000       0.999110        27.1872 
 255   0.0000       1.003376        27.3033 
 256   0.0000       1.008104        27.4319 
 257   0.0000       1.018503        27.7149 
 258   0.0000       1.029226        28.0067 
 259   0.0000       1.035443        28.1758 
 260   0.0000       1.055769        28.7289 
 261   0.0000       1.057288        28.7703 
 262   0.0000       1.058001        28.7897 
 263   0.0000       1.063041        28.9268 
 264   0.0000       1.078209        29.3396 
 265   0.0000       1.092420        29.7262 
 266   0.0000       1.100259        29.9396 
 267   0.0000       1.118986        30.4492 
 268   0.0000       1.122776        30.5523 
 269   0.0000       1.123526        30.5727 
 270   0.0000       1.124942        30.6112 
 271   0.0000       1.131038        30.7771 
 272   0.0000       1.132196        30.8086 
 273   0.0000       1.135555        30.9000 
 274   0.0000       1.139735        31.0138 
 275   0.0000       1.149265        31.2731 
 276   0.0000       1.155765        31.4500 
 277   0.0000       1.158833        31.5334 
 278   0.0000       1.180790        32.1309 
 279   0.0000       1.196972        32.5713 
 280   0.0000       1.207783        32.8654 
 281   0.0000       1.236798        33.6550 
 282   0.0000       1.238082        33.6899 
 283   0.0000       1.272016        34.6133 
 284   0.0000       1.273862        34.6635 
 285   0.0000       1.287578        35.0368 
 286   0.0000       1.298904        35.3450 
 287   0.0000       1.302114        35.4323 
 288   0.0000       1.314617        35.7725 
 289   0.0000       1.351731        36.7825 
 290   0.0000       1.357219        36.9318 
 291   0.0000       1.366703        37.1899 
 292   0.0000       1.379181        37.5294 
 293   0.0000       1.413900        38.4742 
 294   0.0000       1.417453        38.5709 
 295   0.0000       1.434774        39.0422 
 296   0.0000       1.440863        39.2079 
 297   0.0000       1.446210        39.3534 
 298   0.0000       1.461753        39.7763 
 299   0.0000       1.469581        39.9893 
 300   0.0000       1.478716        40.2379 
 301   0.0000       1.484524        40.3960 
 302   0.0000       1.488885        40.5146 
 303   0.0000       1.495496        40.6945 
 304   0.0000       1.518677        41.3253 
 305   0.0000       1.520019        41.3618 
 306   0.0000       1.524970        41.4965 
 307   0.0000       1.529442        41.6182 
 308   0.0000       1.549755        42.1710 
 309   0.0000       1.565144        42.5897 
 310   0.0000       1.568482        42.6806 
 311   0.0000       1.578404        42.9506 
 312   0.0000       1.598885        43.5079 
 313   0.0000       1.604210        43.6528 
 314   0.0000       1.613402        43.9029 
 315   0.0000       1.621734        44.1296 
 316   0.0000       1.636347        44.5273 
 317   0.0000       1.638790        44.5937 
 318   0.0000       1.658350        45.1260 
 319   0.0000       1.667550        45.3763 
 320   0.0000       1.668815        45.4108 
 321   0.0000       1.671536        45.4848 
 322   0.0000       1.681208        45.7480 
 323   0.0000       1.695748        46.1437 
 324   0.0000       1.702269        46.3211 
 325   0.0000       1.706619        46.4395 
 326   0.0000       1.725357        46.9493 
 327   0.0000       1.731284        47.1106 
 328   0.0000       1.737590        47.2822 
 329   0.0000       1.749800        47.6145 
 330   0.0000       1.750613        47.6366 
 331   0.0000       1.759609        47.8814 
 332   0.0000       1.768987        48.1366 
 333   0.0000       1.777721        48.3743 
 334   0.0000       1.782100        48.4934 
 335   0.0000       1.791018        48.7361 
 336   0.0000       1.795373        48.8546 
 337   0.0000       1.804126        49.0928 
 338   0.0000       1.808555        49.2133 
 339   0.0000       1.815105        49.3915 
 340   0.0000       1.834207        49.9113 
 341   0.0000       1.843593        50.1667 
 342   0.0000       1.848707        50.3059 
 343   0.0000       1.850598        50.3573 
 344   0.0000       1.856906        50.5290 
 345   0.0000       1.866965        50.8027 
 346   0.0000       1.870739        50.9054 
 347   0.0000       1.892257        51.4909 
 348   0.0000       1.914666        52.1007 
 349   0.0000       1.922980        52.3269 
 350   0.0000       1.933856        52.6229 
 351   0.0000       1.936120        52.6845 
 352   0.0000       1.951662        53.1074 
 353   0.0000       1.955399        53.2091 
 354   0.0000       1.961977        53.3881 
 355   0.0000       1.968916        53.5769 
 356   0.0000       1.969380        53.5896 
 357   0.0000       1.994709        54.2788 
 358   0.0000       2.013186        54.7816 
 359   0.0000       2.027674        55.1758 
 360   0.0000       2.045731        55.6672 
 361   0.0000       2.052450        55.8500 
 362   0.0000       2.067373        56.2561 
 363   0.0000       2.069738        56.3204 
 364   0.0000       2.075811        56.4857 
 365   0.0000       2.088005        56.8175 
 366   0.0000       2.112294        57.4784 
 367   0.0000       2.126833        57.8741 
 368   0.0000       2.134212        58.0749 
 369   0.0000       2.147501        58.4365 
 370   0.0000       2.160576        58.7923 
 371   0.0000       2.166476        58.9528 
 372   0.0000       2.183565        59.4178 
 373   0.0000       2.190198        59.5983 
 374   0.0000       2.195800        59.7508 
 375   0.0000       2.200336        59.8742 
 376   0.0000       2.210156        60.1414 
 377   0.0000       2.211336        60.1735 
 378   0.0000       2.216852        60.3236 
 379   0.0000       2.230186        60.6864 
 380   0.0000       2.233271        60.7704 
 381   0.0000       2.239260        60.9334 
 382   0.0000       2.239903        60.9509 
 383   0.0000       2.264751        61.6270 
 384   0.0000       2.271347        61.8065 
 385   0.0000       2.277886        61.9844 
 386   0.0000       2.287183        62.2374 
 387   0.0000       2.294612        62.4396 
 388   0.0000       2.295534        62.4646 
 389   0.0000       2.306727        62.7692 
 390   0.0000       2.319228        63.1094 
 391   0.0000       2.322391        63.1955 
 392   0.0000       2.350231        63.9530 
 393   0.0000       2.356422        64.1215 
 394   0.0000       2.374537        64.6144 
 395   0.0000       2.400901        65.3318 
 396   0.0000       2.404804        65.4381 
 397   0.0000       2.409119        65.5555 
 398   0.0000       2.412554        65.6489 
 399   0.0000       2.446498        66.5726 
 400   0.0000       2.452375        66.7325 
 401   0.0000       2.471363        67.2492 
 402   0.0000       2.483372        67.5760 
 403   0.0000       2.495695        67.9113 
 404   0.0000       2.517555        68.5061 
 405   0.0000       2.525361        68.7186 
 406   0.0000       2.533132        68.9300 
 407   0.0000       2.543783        69.2198 
 408   0.0000       2.551569        69.4317 
 409   0.0000       2.552041        69.4446 
 410   0.0000       2.563579        69.7585 
 411   0.0000       2.597701        70.6870 
 412   0.0000       2.603024        70.8319 
 413   0.0000       2.605301        70.8938 
 414   0.0000       2.614268        71.1379 
 415   0.0000       2.617764        71.2330 
 416   0.0000       2.618833        71.2621 
 417   0.0000       2.633504        71.6613 
 418   0.0000       2.640274        71.8455 
 419   0.0000       2.672277        72.7163 
 420   0.0000       2.679819        72.9216 
 421   0.0000       2.681681        72.9722 
 422   0.0000       2.688043        73.1454 
 423   0.0000       2.700675        73.4891 
 424   0.0000       2.727263        74.2126 
 425   0.0000       2.763236        75.1915 
 426   0.0000       2.780214        75.6535 
 427   0.0000       2.795190        76.0610 
 428   0.0000       2.804547        76.3156 
 429   0.0000       2.808859        76.4329 
 430   0.0000       2.823203        76.8233 
 431   0.0000       2.844906        77.4138 
 432   0.0000       2.856915        77.7406 
 433   0.0000       2.863753        77.9267 
 434   0.0000       2.882550        78.4382 
 435   0.0000       2.890497        78.6544 
 436   0.0000       2.905912        79.0739 
 437   0.0000       2.910529        79.1995 
 438   0.0000       2.911035        79.2133 
 439   0.0000       2.919572        79.4456 
 440   0.0000       2.926271        79.6279 
 441   0.0000       2.948426        80.2307 
 442   0.0000       2.949391        80.2570 
 443   0.0000       2.963124        80.6307 
 444   0.0000       2.979777        81.0838 
 445   0.0000       3.012326        81.9695 
 446   0.0000       3.025405        82.3254 
 447   0.0000       3.053585        83.0923 
 448   0.0000       3.055297        83.1388 
 449   0.0000       3.082948        83.8913 
 450   0.0000       3.093466        84.1775 
 451   0.0000       3.177448        86.4628 
 452   0.0000       3.188960        86.7760 
 453   0.0000       3.318854        90.3106 
 454   0.0000       3.334081        90.7250 
 455   0.0000       3.398353        92.4739 
 456   0.0000       3.432878        93.4134 
 457   0.0000       3.435393        93.4818 
 458   0.0000       3.450946        93.9050 
 459   0.0000       3.452308        93.9421 
 460   0.0000       3.481780        94.7440 
 461   0.0000       3.507863        95.4538 
 462   0.0000       3.524580        95.9087 
 463   0.0000       3.540509        96.3421 
 464   0.0000       3.543694        96.4288 
 465   0.0000       3.575935        97.3061 
 466   0.0000       3.586562        97.5953 
 467   0.0000       3.800660       103.4212 
 468   0.0000       3.843582       104.5892 
 469   0.0000       3.860205       105.0415 
 470   0.0000       3.993782       108.6763 
 471   0.0000       4.045124       110.0734 
 472   0.0000       4.214959       114.6949 
[...]
Total number of batches                      ...      235
Average number of points per batch           ...       59
Average number of grid points per atom       ...      437

Memory available               ... 849.9 MB
Memory needed per perturbation ...  34.9 MB
Perturbations treated per batch... 3
Number of batches              ... 1
     CP-SCF ITERATION   0:   4.5501e-02 (   5.4 sec   0/  3 done)
     CP-SCF ITERATION   1:   1.5985e-03 (   5.6 sec   0/  3 done)
     CP-SCF ITERATION   2:   4.0707e-04 (   5.6 sec   3/  3 done)
                    *** THE CP-SCF HAS CONVERGED ***

Forming final perturbed densities           ... done
Transforming perturbed density to AO basis  ... done

 Raw HFC matrix (all values in MHz): 
 -----------------------------------
                -0.4766              -0.1109              -0.2377
                -0.1109              -0.2852               0.4888
                -0.2371               0.4894               0.6407

 A(FC)          -0.0395              -0.0395              -0.0395
 A(SD)          -0.4572              -0.4914               0.9486
 A(ORB+DIA)      0.0029               0.0027              -0.0081    A(PC) =  -0.0009
 A(ORB)          0.0029               0.0027              -0.0083    A(PC) =  -0.0009
 A(DIA)         -0.0000              -0.0001               0.0002    A(PC) =   0.0000
             ----------           ----------           ----------
 A(Tot)         -0.4938              -0.5282               0.9010    A(iso)=   -0.0403
 Orientation: 
  X          -0.2255162            0.9561371            0.1869337
  Y           0.8765746            0.2828735           -0.3893578
  Z          -0.4251581            0.0760549           -0.9019181

Notes:  (1) The A matrix conforms to the "SAI" spin Hamiltonian convention.
        (2) Tensor is right-handed.

 Raw EFG matrix (all values in a.u.**-3):
 -----------------------------------
            -0.1419       0.0193      -0.0123
             0.0193       0.1221      -0.2091
            -0.0123      -0.2091       0.0198

 V(El)       0.5967       0.4593      -1.0560
 V(Nuc)     -0.7381      -0.6054       1.3434
         ----------   ----------   ----------
 V(Tot)     -0.1414      -0.1460       0.2874 
 Orientation: 
  X       0.7979392   -0.6004013   -0.0530206
  Y       0.3377269    0.5182296   -0.7857345
  Z       0.4992329    0.6090619    0.6162874

Note: Tensor is right-handed


 Quadrupole tensor eigenvalues (in MHz;Q= 0.0029 I=  1.0)
  e**2qQ            =     0.192998 MHz 
  e**2qQ/(4I*(2I-1))=     0.048249 MHz 
  eta               =     0.016270
  NOTE: the diagonal representation of the SH term I*Q*I = e**2qQ/(4I(2I-1))*[-(1-eta),-(1+eta),2]

 RHO(0)=      0.441065235 a.u.**-3

 -----------------------------------------------------------
 Nucleus  31H : A:ISTP=    1 I=  0.5 P=533.5514 MHz/au**3
                Q:ISTP=    2 I=  1.0 Q=  0.0029 barn     
 -----------------------------------------------------------
 Solving for nuclear perturbation:
Forming RHS of the CP-SCF equations         ... 
Calc. nucleus orbit integrals (SHARK)       ... done

------------------------------------------------------------------------------
                           ORCA CP-SCF CALCULATION
------------------------------------------------------------------------------

Input orbitals are from        ... input_87.gbw
Input Perturbation             ... input_87.pin.tmp
Wavefunction output            ... input_87.pout.tmp
Perturbation mode              ... Imaginary perturbation
Solver                         ... POPLE
Max. number of iterations      ... 64
Convergence tolerance          ... 1.000e-03
Integral handling              ... Direct
DFT GridXC                     ... 1
COSX GridX                     ... 1
COSX IntAccX                   ... 3.067
COSX Algorithm                 ... Auto
Number of perturbations        ... 3
Number of operators            ... 2
Orbital ranges used for CP-SCF:
 Operator 0:  Orbitals   0...116  to 117...516
 Operator 1:  Orbitals   0...115  to 116...516
Variables per perturbation     ... 93316
DFT calculation                         ... on
XC functional terms                     ... off
Hybrid DFT                              ... on
   Exchange mixing (SCF)                ...  0.200
   Exchange mixing (CP-SCF)             ...  0.200
   GGA exch. scaling(SCF)               ...  0.720
   GGA exch. scaling (CP-SCF)           ...  0.720
   GGA corr. scaling (SCF)              ...  0.810
   GGA corr. scaling (CP-SCF)           ...  0.810

CP-SCF GRID
-----------

General Integration Accuracy     IntAcc      ... 3.467
Radial Grid Type                 RadialGrid  ... OptM3 with GC (2021)
Angular Grid (max. ang.)         AngularGrid ... 1 (Lebedev-50)
Angular grid pruning method      GridPruning ... 4 (adaptive)
Weight generation scheme         WeightScheme... Becke
Basis function cutoff            BFCut       ... 1.0000e-10
Integration weight cutoff        WCut        ... 1.0000e-14
Angular grids for H and He will be reduced by one unit
Partially contracted basis set               ... off
Rotationally invariant grid construction     ... off

Total number of grid points                  ...    31427
Total number of batches                      ...      506
Average number of points per batch           ...       62
Average number of grid points per atom       ...      982

CP-SCF GRIDX
------------

General Integration Accuracy     IntAcc      ... 3.067
Radial Grid Type                 RadialGrid  ... OptM3 with GC (2021)
Angular Grid (max. ang.)         AngularGrid ... 1 (Lebedev-50)
Angular grid pruning method      GridPruning ... 4 (adaptive)
Weight generation scheme         WeightScheme... Becke
Basis function cutoff            BFCut       ... 1.0000e-10
Integration weight cutoff        WCut        ... 1.0000e-14
Angular grids for H and He will be reduced by one unit
Partially contracted basis set               ... on
Rotationally invariant grid construction     ... off

Total number of grid points                  ...    13969
Total number of batches                      ...      235
Average number of points per batch           ...       59
Average number of grid points per atom       ...      437

Memory available               ... 846.7 MB
Memory needed per perturbation ...  34.9 MB
Perturbations treated per batch... 3
Number of batches              ... 1
     CP-SCF ITERATION   0:   4.1370e-02 (   5.4 sec   0/  3 done)
     CP-SCF ITERATION   1:   1.3086e-03 (   5.5 sec   1/  3 done)
     CP-SCF ITERATION   2:   2.4425e-04 (   4.5 sec   3/  3 done)
                    *** THE CP-SCF HAS CONVERGED ***

Forming final perturbed densities           ... done
Transforming perturbed density to AO basis  ... done

 Raw HFC matrix (all values in MHz): 
 -----------------------------------
                -0.1957              -0.0463              -0.2019
                -0.0462              -0.2392               0.1421
                -0.2019               0.1431               0.4069

 A(FC)          -0.0090              -0.0090              -0.0090
 A(SD)          -0.2488              -0.2630               0.5118
 A(ORB+DIA)      0.0013               0.0018              -0.0041    A(PC) =  -0.0003
 A(ORB)          0.0014               0.0019              -0.0042    A(PC) =  -0.0003
 A(DIA)         -0.0001              -0.0000               0.0001    A(PC) =  -0.0000
             ----------           ----------           ----------
 A(Tot)         -0.2565              -0.2702               0.4988    A(iso)=   -0.0093
 Orientation: 
  X          -0.9289277            0.2353972            0.2857998
  Y           0.1828365            0.9628405           -0.1987688
  Z          -0.3219692           -0.1323872           -0.9374484

Notes:  (1) The A matrix conforms to the "SAI" spin Hamiltonian convention.
        (2) Tensor is right-handed.

 Raw EFG matrix (all values in a.u.**-3):
 -----------------------------------
             0.1019      -0.0510      -0.2090
            -0.0510      -0.1351       0.0486
            -0.2090       0.0486       0.0333

 V(El)       0.5409       0.8261      -1.3670
 V(Nuc)     -0.6822      -0.9758       1.6580
         ----------   ----------   ----------
 V(Tot)     -0.1413      -0.1497       0.2909 
 Orientation: 
  X      -0.5957298   -0.2846444    0.7510550
  Y      -0.5849367    0.7945658   -0.1628317
  Z      -0.5504135   -0.5363233   -0.6398455

Note: Tensor is right-handed


 Quadrupole tensor eigenvalues (in MHz;Q= 0.0029 I=  1.0)
  e**2qQ            =     0.195367 MHz 
  e**2qQ/(4I*(2I-1))=     0.048842 MHz 
  eta               =     0.028882
  NOTE: the diagonal representation of the SH term I*Q*I = e**2qQ/(4I(2I-1))*[-(1-eta),-(1+eta),2]

 RHO(0)=      0.444903595 a.u.**-3

 -----------------------------------------------------------
 Nucleus   0V : A:ISTP=   51 I=  3.5 P=140.5173 MHz/au**3
                Q:ISTP=   51 I=  3.5 Q= -0.0430 barn     
 -----------------------------------------------------------
 Solving for nuclear perturbation:
Forming RHS of the CP-SCF equations         ... 
Calc. nucleus orbit integrals (SHARK)       ... done

------------------------------------------------------------------------------
                           ORCA CP-SCF CALCULATION
------------------------------------------------------------------------------

Input orbitals are from        ... input_87.gbw
Input Perturbation             ... input_87.pin.tmp
Wavefunction output            ... input_87.pout.tmp
Perturbation mode              ... Imaginary perturbation
Solver                         ... POPLE
Max. number of iterations      ... 64
Convergence tolerance          ... 1.000e-03
Integral handling              ... Direct
DFT GridXC                     ... 1
COSX GridX                     ... 1
COSX IntAccX                   ... 3.067
COSX Algorithm                 ... Auto
Number of perturbations        ... 3
Number of operators            ... 2
Orbital ranges used for CP-SCF:
 Operator 0:  Orbitals   0...116  to 117...516
 Operator 1:  Orbitals   0...115  to 116...516
Variables per perturbation     ... 93316
DFT calculation                         ... on
XC functional terms                     ... off
Hybrid DFT                              ... on
   Exchange mixing (SCF)                ...  0.200
   Exchange mixing (CP-SCF)             ...  0.200
   GGA exch. scaling(SCF)               ...  0.720
   GGA exch. scaling (CP-SCF)           ...  0.720
   GGA corr. scaling (SCF)              ...  0.810
   GGA corr. scaling (CP-SCF)           ...  0.810

CP-SCF GRID
-----------

General Integration Accuracy     IntAcc      ... 3.467
Radial Grid Type                 RadialGrid  ... OptM3 with GC (2021)
Angular Grid (max. ang.)         AngularGrid ... 1 (Lebedev-50)
Angular grid pruning method      GridPruning ... 4 (adaptive)
Weight generation scheme         WeightScheme... Becke
Basis function cutoff            BFCut       ... 1.0000e-10
Integration weight cutoff        WCut        ... 1.0000e-14
Angular grids for H and He will be reduced by one unit
Partially contracted basis set               ... off
Rotationally invariant grid construction     ... off

Total number of grid points                  ...    31427
Total number of batches                      ...      506
Average number of points per batch           ...       62
Average number of grid points per atom       ...      982

CP-SCF GRIDX
------------

General Integration Accuracy     IntAcc      ... 3.067
Radial Grid Type                 RadialGrid  ... OptM3 with GC (2021)
Angular Grid (max. ang.)         AngularGrid ... 1 (Lebedev-50)
Angular grid pruning method      GridPruning ... 4 (adaptive)
Weight generation scheme         WeightScheme... Becke
Basis function cutoff            BFCut       ... 1.0000e-10
Integration weight cutoff        WCut        ... 1.0000e-14
Angular grids for H and He will be reduced by one unit
Partially contracted basis set               ... on
Rotationally invariant grid construction     ... off

Total number of grid points                  ...    13969
Total number of batches                      ...      235
Average number of points per batch           ...       59
Average number of grid points per atom       ...      437

Memory available               ... 843.6 MB
Memory needed per perturbation ...  34.9 MB
Perturbations treated per batch... 3
Number of batches              ... 1
     CP-SCF ITERATION   0:   1.2251e+01 (   5.9 sec   0/  3 done)
     CP-SCF ITERATION   1:   1.8828e+00 (   5.6 sec   0/  3 done)
     CP-SCF ITERATION   2:   3.2564e-01 (   5.6 sec   0/  3 done)
     CP-SCF ITERATION   3:   3.9784e-02 (   5.6 sec   0/  3 done)
     CP-SCF ITERATION   4:   7.5004e-03 (   5.6 sec   0/  3 done)
     CP-SCF ITERATION   5:   1.9305e-03 (   5.6 sec   1/  3 done)
     CP-SCF ITERATION   6:   3.1904e-04 (   4.5 sec   3/  3 done)
                    *** THE CP-SCF HAS CONVERGED ***

Forming final perturbed densities           ... done
Transforming perturbed density to AO basis  ... done

 Raw HFC matrix (all values in MHz): 
 -----------------------------------
               -74.1875             -29.4082              -9.3627
               -29.3934            -343.4770             -83.8798
                -9.3681             -83.9396            -111.7506

 A(FC)        -165.3615            -165.3615            -165.3615
 A(SD)         100.8723              88.4711            -189.3433
 A(ORB+DIA)     -6.5193              -7.6688             -19.1426    A(PC) = -11.1102
 A(ORB)         -6.5189              -7.6693             -19.1425    A(PC) = -11.1102
 A(DIA)         -0.0004               0.0005              -0.0001    A(PC) =  -0.0000
             ----------           ----------           ----------
 A(Tot)        -71.0085             -84.5592            -373.8474    A(iso)= -176.4717
 Orientation: 
  X           0.9946713            0.0114935            0.1024545
  Y          -0.1010226            0.3070108            0.9463291
  Z          -0.0205781           -0.9516366            0.3065360

Notes:  (1) The A matrix conforms to the "SAI" spin Hamiltonian convention.
        (2) Tensor is right-handed.

 Raw EFG matrix (all values in a.u.**-3):
 -----------------------------------
            -0.0920       0.0423       0.0101
             0.0423       0.2464       0.1471
             0.0101       0.1471      -0.1544

 V(El)       0.1401      -0.4662       0.3260
 V(Nuc)     -0.2368       0.2634      -0.0266
         ----------   ----------   ----------
 V(Tot)     -0.0967      -0.2027       0.2994 
 Orientation: 
  X       0.9933876   -0.0329142    0.1099898
  Y      -0.0942040    0.3139328    0.9447602
  Z      -0.0656254   -0.9488745    0.3087563

Note: Tensor is right-handed


 Quadrupole tensor eigenvalues (in MHz;Q=-0.0430 I=  3.5)
  e**2qQ            =    -3.025290 MHz 
  e**2qQ/(4I*(2I-1))=    -0.036015 MHz 
  eta               =     0.354075
  NOTE: the diagonal representation of the SH term I*Q*I = e**2qQ/(4I(2I-1))*[-(1-eta),-(1+eta),2]

 RHO(0)=   8115.214646995 a.u.**-3


--------------------------------------------------------------------------------
----------------------------------------------------------------------------
                           ORCA EULER ANGLE PROGRAM
----------------------------------------------------------------------------

Only g-tensor available        -->  using g-tensor as reference tensor

Reference tensor               ...  g

g-tensor ordering              ...  |g_min> --> |gx>
                                    |g_mid> --> |gy>
                                    |g_max> --> |gz>

A- and EFG-tensor ordering     ...  the axes |Ax>, |Qx>, |Ay>, etc. are assigned
                                    such that the Euler rotation is minimal. You
                                    can find the respective eigenvalues as Ax,
                                    EFGx, Ay, etc. in the tables below.
                                    The relation of |Ax>, |Ay>,  etc. to Amin, Amid, etc.
                                    (as printed in the ORCA EPR/NMR CALCULATION Output)
                                    is obtained in the detailed printout.

Euler rotation around          ...  z - y - z
   First rotation              -->  by alpha around z
   Second rotation             -->  by beta around y'
   Third rotation              -->  by gamma around z''
   Positive / Negative angle   -->  clockwise / counterclockwise rotation

Plot EFG-tensors                    (-)
Plot HFC-tensors                    (-)
Detailed Printout                   (-)

-------------------------------------------------------------------------
          Euler rotation of hyperfine tensor to g-tensor
-------------------------------------------------------------------------

-------------------------------------------------------------------
 Atom  |   Alpha    Beta    Gamma   |   Ax       Ay       Az 
       |          [degrees]         |           [MHz]         
-------------------------------------------------------------------
 19H      -42.6     20.4     -2.0       0.79    -0.66    -0.71
 20H      121.8     22.1    -96.3      -0.30     0.55    -0.27
 21H        1.5     13.9     30.7      -0.13     0.46    -0.13
 22H      176.9      8.3   -158.9      -0.21     0.45    -0.22
 23H      -69.2     20.9     95.2      -0.28     0.43    -0.27
 24H     -144.1     23.7   -178.0      -0.46     0.86    -0.49
 26H     -109.6     20.3     81.9      -0.27     0.50    -0.25
 27H      -38.7     23.5     -4.7      -0.49     0.90    -0.53
 28H        4.4      2.9    -24.1      -0.22     0.45    -0.22
 29H        8.7      0.4    -42.4      -0.12     0.47    -0.12
 30H      140.0     22.7    176.4      -0.49     0.90    -0.53
 31H       66.1     21.1    -93.9      -0.27     0.50    -0.26
  0V       69.7      0.5    -70.7    -373.85   -84.56   -71.01
-------------------------------------------------------------------


-------------------------------------------------------------------------------
    Euler rotation of Electric Field Gradient (EFG) tensor to g-tensor
-------------------------------------------------------------------------------

-------------------------------------------------------------------
 Atom  |   Alpha    Beta    Gamma  |   EFGx     EFGy     EFGz
       |          [degrees]        |         [a.u.**-3]       
-------------------------------------------------------------------
 19H       89.3     16.6    -45.1      0.01    -0.01    -0.00
 20H     -140.4     37.5    117.8     -0.53    -0.54     1.07
 21H      -88.2      6.2     68.3      0.28    -0.14    -0.14
 22H        8.1      2.4    -44.3     -0.15     0.29    -0.14
 23H       39.3     40.4    -67.5     -0.03    -0.04     0.07
 24H      169.2     11.8    155.0     -1.77     3.55    -1.78
 26H      144.4     39.0   -115.4     -0.14    -0.15     0.29
 27H        2.5     42.0     31.3     -0.15     0.29    -0.14
 28H       76.3      0.7    -41.8     -0.15     0.29    -0.14
 29H       57.0      0.7    -38.9      0.28    -0.14    -0.14
 30H     -179.6     41.6   -147.3     -0.15     0.29    -0.14
 31H      -33.4     38.7     62.8     -0.14    -0.15     0.29
  0V      -73.4      2.2     72.5      0.30    -0.20    -0.10
-------------------------------------------------------------------


Maximum memory used throughout the entire EPRNMR-calculation: 243.5 MB

Timings for individual modules:

Sum of individual times         ...     2605.328 sec (=  43.422 min)
GTO integral calculation        ...        1.391 sec (=   0.023 min)   0.1 %
Spin-Orbit-Coupling Matrices    ...       11.132 sec (=   0.186 min)   0.4 %
SCF iterations                  ...      238.111 sec (=   3.969 min)   9.1 %
EPR/NMR calculation             ...     2354.694 sec (=  39.245 min)  90.4 %
                             ****ORCA TERMINATED NORMALLY****
TOTAL RUN TIME: 0 days 0 hours 43 minutes 26 seconds 547 msec
