
                                 *****************
                                 * O   R   C   A *
                                 *****************

                                            #,                                       
                                            ###                                      
                                            ####                                     
                                            #####                                    
                                            ######                                   
                                           ########,                                 
                                     ,,################,,,,,                         
                               ,,#################################,,                 
                          ,,##########################################,,             
                       ,#########################################, ''#####,          
                    ,#############################################,,   '####,        
                  ,##################################################,,,,####,       
                ,###########''''           ''''###############################       
              ,#####''   ,,,,##########,,,,          '''####'''          '####       
            ,##' ,,,,###########################,,,                        '##       
           ' ,,###''''                  '''############,,,                           
         ,,##''                                '''############,,,,        ,,,,,,###''
      ,#''                                            '''#######################'''  
     '                                                          ''''####''''         
             ,#######,   #######,   ,#######,      ##                                
            ,#'     '#,  ##    ##  ,#'     '#,    #''#        ######   ,####,        
            ##       ##  ##   ,#'  ##            #'  '#       #        #'  '#        
            ##       ##  #######   ##           ,######,      #####,   #    #        
            '#,     ,#'  ##    ##  '#,     ,#' ,#      #,         ##   #,  ,#        
             '#######'   ##     ##  '#######'  #'      '#     #####' # '####'        



                  #######################################################
                  #                        -***-                        #
                  #          Department of theory and spectroscopy      #
                  #    Directorship and core code : Frank Neese         #
                  #        Max Planck Institute fuer Kohlenforschung    #
                  #                Kaiser Wilhelm Platz 1               #
                  #                 D-45470 Muelheim/Ruhr               #
                  #                      Germany                        #
                  #                                                     #
                  #                  All rights reserved                #
                  #                        -***-                        #
                  #######################################################


                         Program Version 5.0.4 -  RELEASE  -


 With contributions from (in alphabetic order):
   Daniel Aravena         : Magnetic Suceptibility
   Michael Atanasov       : Ab Initio Ligand Field Theory (pilot matlab implementation)
   Alexander A. Auer      : GIAO ZORA, VPT2 properties, NMR spectrum
   Ute Becker             : Parallelization
   Giovanni Bistoni       : ED, misc. LED, open-shell LED, HFLD
   Martin Brehm           : Molecular dynamics
   Dmytro Bykov           : SCF Hessian
   Vijay G. Chilkuri      : MRCI spin determinant printing, contributions to CSF-ICE
   Dipayan Datta          : RHF DLPNO-CCSD density
   Achintya Kumar Dutta   : EOM-CC, STEOM-CC
   Dmitry Ganyushin       : Spin-Orbit,Spin-Spin,Magnetic field MRCI
   Miquel Garcia          : C-PCM and meta-GGA Hessian, CC/C-PCM, Gaussian charge scheme
   Yang Guo               : DLPNO-NEVPT2, F12-NEVPT2, CIM, IAO-localization
   Andreas Hansen         : Spin unrestricted coupled pair/coupled cluster methods
   Benjamin Helmich-Paris : MC-RPA, TRAH-SCF, COSX integrals
   Lee Huntington         : MR-EOM, pCC
   Robert Izsak           : Overlap fitted RIJCOSX, COSX-SCS-MP3, EOM
   Marcus Kettner         : VPT2
   Christian Kollmar      : KDIIS, OOCD, Brueckner-CCSD(T), CCSD density, CASPT2, CASPT2-K
   Simone Kossmann        : Meta GGA functionals, TD-DFT gradient, OOMP2, MP2 Hessian
   Martin Krupicka        : Initial AUTO-CI
   Lucas Lang             : DCDCAS
   Marvin Lechner         : AUTO-CI (C++ implementation), FIC-MRCC
   Dagmar Lenk            : GEPOL surface, SMD
   Dimitrios Liakos       : Extrapolation schemes; Compound Job, initial MDCI parallelization
   Dimitrios Manganas     : Further ROCIS development; embedding schemes
   Dimitrios Pantazis     : SARC Basis sets
   Anastasios Papadopoulos: AUTO-CI, single reference methods and gradients
   Taras Petrenko         : DFT Hessian,TD-DFT gradient, ASA, ECA, R-Raman, ABS, FL, XAS/XES, NRVS
   Peter Pinski           : DLPNO-MP2, DLPNO-MP2 Gradient
   Christoph Reimann      : Effective Core Potentials
   Marius Retegan         : Local ZFS, SOC
   Christoph Riplinger    : Optimizer, TS searches, QM/MM, DLPNO-CCSD(T), (RO)-DLPNO pert. Triples
   Tobias Risthaus        : Range-separated hybrids, TD-DFT gradient, RPA, STAB
   Michael Roemelt        : Original ROCIS implementation
   Masaaki Saitow         : Open-shell DLPNO-CCSD energy and density
   Barbara Sandhoefer     : DKH picture change effects
   Avijit Sen             : IP-ROCIS
   Kantharuban Sivalingam : CASSCF convergence, NEVPT2, FIC-MRCI
   Bernardo de Souza      : ESD, SOC TD-DFT
   Georgi Stoychev        : AutoAux, RI-MP2 NMR, DLPNO-MP2 response
   Willem Van den Heuvel  : Paramagnetic NMR
   Boris Wezisla          : Elementary symmetry handling
   Frank Wennmohs         : Technical directorship


 We gratefully acknowledge several colleagues who have allowed us to
 interface, adapt or use parts of their codes:
   Stefan Grimme, W. Hujo, H. Kruse, P. Pracht,  : VdW corrections, initial TS optimization,
                  C. Bannwarth, S. Ehlert          DFT functionals, gCP, sTDA/sTD-DF
   Ed Valeev, F. Pavosevic, A. Kumar             : LibInt (2-el integral package), F12 methods
   Garnet Chan, S. Sharma, J. Yang, R. Olivares  : DMRG
   Ulf Ekstrom                                   : XCFun DFT Library
   Mihaly Kallay                                 : mrcc  (arbitrary order and MRCC methods)
   Jiri Pittner, Ondrej Demel                    : Mk-CCSD
   Frank Weinhold                                : gennbo (NPA and NBO analysis)
   Christopher J. Cramer and Donald G. Truhlar   : smd solvation model
   Lars Goerigk                                  : TD-DFT with DH, B97 family of functionals
   V. Asgeirsson, H. Jonsson                     : NEB implementation
   FAccTs GmbH                                   : IRC, NEB, NEB-TS, DLPNO-Multilevel, CI-OPT
                                                   MM, QMMM, 2- and 3-layer-ONIOM, Crystal-QMMM,
                                                   LR-CPCM, SF, NACMEs, symmetry and pop. for TD-DFT,
                                                   nearIR, NL-DFT gradient (VV10), updates on ESD,
                                                   ML-optimized integration grids
   S Lehtola, MJT Oliveira, MAL Marques          : LibXC Library
   Liviu Ungur et al                             : ANISO software


 Your calculation uses the libint2 library for the computation of 2-el integrals
 For citations please refer to: http://libint.valeyev.net

 Your ORCA version has been built with support for libXC version: 5.1.0
 For citations please refer to: https://tddft.org/programs/libxc/

 This ORCA versions uses:
   CBLAS   interface :  Fast vector & matrix operations
   LAPACKE interface :  Fast linear algebra routines
   SCALAPACK package :  Parallel linear algebra routines
   Shared memory     :  Shared parallel matrices
   BLAS/LAPACK       :  OpenBLAS 0.3.15  USE64BITINT DYNAMIC_ARCH NO_AFFINITY Prescott SINGLE_THREADED
        Core in use  :  Prescott
   Copyright (c) 2011-2014, The OpenBLAS Project


================================================================================

----- Orbital basis set information -----
Your calculation utilizes the basis: TZVP 

The basis set includes element-specific modifications.

Your calculation utilizes the basis: CP(PPP) 

----- AuxJ basis set information -----
Your calculation utilizes the auxiliary basis: def2/J
   F. Weigend, Phys. Chem. Chem. Phys. 8, 1057 (2006).

================================================================================
                                        WARNINGS
                       Please study these warnings very carefully!
================================================================================


WARNING: your system is open-shell and RHF/RKS was chosen
  ===> : WILL SWITCH to UHF/UKS


INFO   : the flag for use of the SHARK integral package has been found!

================================================================================
                                       INPUT FILE
================================================================================
NAME = input_65.inp
|  1> ! nofrozencore ReducedPop printbasis
|  2> ! B3LYP TZVP
|  3> 
|  4> %basis
|  5> newgto V "CP(PPP)" end
|  6> end
|  7> 
|  8> %pal
|  9> nprocs 4
| 10> end
| 11> 
| 12> % sym SymThresh 1e-2 end
| 13> * xyz -2 2 
| 14> V 0.820780114692517 -0.5718582350183027 0.4933182563052887
| 15> S -1.0568406232999088 -0.46177745101920925 2.064102128453498
| 16> S -0.5550614598255237 -2.159734079994659 -0.765019662714615
| 17> S 1.0872168951819579 1.790403749576218 1.0825891678620856
| 18> S 1.612012607053429 0.0752315321123627 -1.7344176871575179
| 19> O 1.992958771484165 -1.390333322760238 1.2046531817812978
| 20> C 0.17582602612965992 -2.1795054660372037 -2.376071584987162
| 21> C 1.0774343614452766 -1.2475897300034895 -2.7801267273812953
| 22> C -0.7736944918278564 1.0379023589994192 2.9621913611825748
| 23> C 0.11868500104836506 1.9754420919547102 2.553965923372657
| 24> S -0.3925500114009377 -3.5139631509422053 -3.447374223469865
| 25> S 1.7976322572606813 -1.2426780854338635 -4.43336836384394
| 26> S 0.38273912506265184 3.519480377882944 3.4424357899994598
| 27> S -1.7883858753148911 1.237864079272241 4.436934052499505
| 28> C 0.37011949924382687 -0.8440491726592567 -5.5015990745217636
| 29> C -1.154273156482566 4.39221315864561 3.1928722797271636
| 30> C -1.353313417659481 -2.6331404776689507 -4.727147519615412
| 31> C -2.888763292497924 2.5697608201246176 3.9883303942415553
| 32> C -0.5594580686937202 -2.0139554337235643 -5.901405228003481
| 33> H -1.9737125355349685 -1.823738054691961 -4.3149609219835945
| 34> H -2.071916888888638 -3.309313096009405 -5.222640082517239
| 35> H -1.258486650768066 -1.6791724597597808 -6.684496764414196
| 36> H 0.06395664403282011 -2.8036624594549777 -6.337855307517199
| 37> H 0.6997570166887034 -0.427451033446739 -6.469547567299373
| 38> H -0.28041208298788045 -0.06740906505508834 -5.073147827916391
| 39> C -2.382899865571567 4.065819938523619 4.142299426983617
| 40> H -3.8846659626809665 2.799416949536715 4.550835395697313
| 41> H -3.349317808171157 2.702707377295439 2.943650083742014
| 42> H -1.9693016594977555 4.1187765159289 5.163177337003734
| 43> H -3.1974351986762506 4.806181355041689 4.06709853068312
| 44> H -1.752656236728978 4.379823934256715 2.211179313004952
| 45> H -1.2769089591467775 5.541554704892988 3.3525008505551614
| 46> * 
| 47> 
| 48> % eprnmr
| 49> gtensor true
| 50> Nuclei = all H {aiso,adip,aorb,fgrad,rho}
| 51> Nuclei = all V {aiso,adip,aorb,fgrad,rho}
| 52> end
| 53> 
| 54>                          ****END OF INPUT****
================================================================================

------------------------------------------------------------------------------
                            SYMMETRY HANDLING SETUP
------------------------------------------------------------------------------

------------------
SYMMETRY DETECTION
------------------
The point group will now be determined using a tolerance of 1.0000e-02.
Splitting atom subsets according to nuclear charge, mass and basis set.
Splitting atom subsets according to distance from the molecule's center.
Identifying relative distance patterns of the atoms.
Splitting atom subsets according to atoms' relative distance patterns.
Bring atoms of each subset into input order.
The molecule is neither linear nor planar.
There is at least one atom subset not centered around the molecule's center.
The molecule does not have a center of inversion.
Analyzing the first atom subset for its symmetry.
The subset is an off-center atom pair.
Testing point group C2v.
Test failed.
Testing point group C2.
Test failed.
Testing point group Cs.
Test failed.
Testing point group Cs.
Test failed.
No testing is needed for point group C1.
This point group has been found:    C1
Largest non-degenerate subgroup:    C1


Mass-centered symmetry-perfected Cartesians (point group C1):

Atom          Symmetry-perfected Cartesians (x, y, z; au)
  0       1.552711663803   -1.081889333199    0.933099479477
  1      -1.995477314373   -0.873866798833    3.901450813418
  2      -1.047252115699   -4.082539814873   -1.444814571399
  3       2.056204210932    3.382138874258    2.046660121006
  4       3.047924382626    0.140933110741   -3.276711352360
  5       3.767808305167   -2.628583096468    2.277327678120
  6       0.333925067467   -4.119902319781   -4.489261492021
  7       2.037717901274   -2.358836798786   -5.252815054149
  8      -1.460408670012    1.960117330673    5.598593507099
  9       0.225944179052    3.731810665628    4.827159228738
 10      -0.740149984549   -6.641661881558   -6.513730085301
 11       3.398694686591   -2.349555135682   -8.376988980259
 12       0.724934157971    6.649620166322    6.506123954905
 13      -3.377897495252    2.337990219256    8.385453311690
 14       0.701086521261   -1.596255661475  -10.395652471284
 15      -2.179598118623    8.298846110059    6.034517267470
 16      -2.555729701871   -4.977148256524   -8.932151128522
 17      -5.457309457680    4.854910298130    7.537715254907
 18      -1.055560502378   -3.807058097247  -11.151176608021
 19      -3.728114128382   -3.447599344965   -8.153231342925
 20      -3.913693461380   -6.254929324443   -9.868496373801
 21      -2.376533082281   -3.174409962156  -12.631005149629
 22       0.122522572533   -5.299388101913  -11.975947729430
 23       1.324011152698   -0.808999270463  -12.224810034376
 24      -0.528240010623   -0.128618553484   -9.585996953463
 25      -4.501366119622    7.682052312060    7.828674559895
 26      -7.339292760366    5.288897487695    8.600695656620
 27      -6.327631362043    5.106142881630    5.563555570563
 28      -3.719778780661    7.782125740345    9.757854226003
 29      -6.040614825592    9.081132629401    7.686565460861
 30      -3.310378263461    8.275433868952    4.179386412768
 31      -2.411346199872   10.470786866804    6.336171549484


------------------
SYMMETRY REDUCTION
------------------
ORCA supports only abelian point groups.
It is now checked, if the determined point group is supported:
Point Group ( C1    ) is          ... supported

The point group is C1 - hence turning off symmetry
If this is a round-off problem, please increase the symmetry
        detection tolerance (%method SymThresh)

Storing the symmetry object:
Symmetry file                     ... input_65.sym.tmp
Writing symmetry information      ... done

                       ****************************
                       * Single Point Calculation *
                       ****************************

---------------------------------
CARTESIAN COORDINATES (ANGSTROEM)
---------------------------------
  V      0.821660   -0.572511    0.493775
  S     -1.055961   -0.462430    2.064559
  S     -0.554182   -2.160387   -0.764563
  S      1.088096    1.789751    1.083046
  S      1.612892    0.074579   -1.733961
  O      1.993838   -1.390986    1.205110
  C      0.176706   -2.180158   -2.375615
  C      1.078314   -1.248243   -2.779670
  C     -0.772815    1.037249    2.962648
  C      0.119565    1.974789    2.554423
  S     -0.391671   -3.514616   -3.446918
  S      1.798512   -1.243331   -4.432912
  S      0.383619    3.518827    3.442893
  S     -1.787506    1.237211    4.437391
  C      0.370999   -0.844702   -5.501142
  C     -1.153394    4.391560    3.193329
  C     -1.352434   -2.633793   -4.726691
  C     -2.887884    2.569108    3.988787
  C     -0.558579   -2.014608   -5.900949
  H     -1.972833   -1.824391   -4.314504
  H     -2.071037   -3.309966   -5.222183
  H     -1.257607   -1.679825   -6.684040
  H      0.064836   -2.804315   -6.337399
  H      0.700637   -0.428104   -6.469091
  H     -0.279533   -0.068062   -5.072691
  C     -2.382020    4.065167    4.142756
  H     -3.883786    2.798764    4.551292
  H     -3.348438    2.702054    2.944107
  H     -1.968422    4.118124    5.163634
  H     -3.196556    4.805528    4.067555
  H     -1.751777    4.379171    2.211636
  H     -1.276029    5.540902    3.352958

----------------------------
CARTESIAN COORDINATES (A.U.)
----------------------------
  NO LB      ZA    FRAG     MASS         X           Y           Z
   0 V    23.0000    0    50.940    1.552712   -1.081889    0.933099
   1 S    16.0000    0    32.060   -1.995477   -0.873867    3.901451
   2 S    16.0000    0    32.060   -1.047252   -4.082540   -1.444815
   3 S    16.0000    0    32.060    2.056204    3.382139    2.046660
   4 S    16.0000    0    32.060    3.047924    0.140933   -3.276711
   5 O     8.0000    0    15.999    3.767808   -2.628583    2.277328
   6 C     6.0000    0    12.011    0.333925   -4.119902   -4.489261
   7 C     6.0000    0    12.011    2.037718   -2.358837   -5.252815
   8 C     6.0000    0    12.011   -1.460409    1.960117    5.598594
   9 C     6.0000    0    12.011    0.225944    3.731811    4.827159
  10 S    16.0000    0    32.060   -0.740150   -6.641662   -6.513730
  11 S    16.0000    0    32.060    3.398695   -2.349555   -8.376989
  12 S    16.0000    0    32.060    0.724934    6.649620    6.506124
  13 S    16.0000    0    32.060   -3.377897    2.337990    8.385453
  14 C     6.0000    0    12.011    0.701087   -1.596256  -10.395652
  15 C     6.0000    0    12.011   -2.179598    8.298846    6.034517
  16 C     6.0000    0    12.011   -2.555730   -4.977148   -8.932151
  17 C     6.0000    0    12.011   -5.457309    4.854910    7.537715
  18 C     6.0000    0    12.011   -1.055561   -3.807058  -11.151177
  19 H     1.0000    0     1.008   -3.728114   -3.447599   -8.153231
  20 H     1.0000    0     1.008   -3.913693   -6.254929   -9.868496
  21 H     1.0000    0     1.008   -2.376533   -3.174410  -12.631005
  22 H     1.0000    0     1.008    0.122523   -5.299388  -11.975948
  23 H     1.0000    0     1.008    1.324011   -0.808999  -12.224810
  24 H     1.0000    0     1.008   -0.528240   -0.128619   -9.585997
  25 C     6.0000    0    12.011   -4.501366    7.682052    7.828675
  26 H     1.0000    0     1.008   -7.339293    5.288897    8.600696
  27 H     1.0000    0     1.008   -6.327631    5.106143    5.563556
  28 H     1.0000    0     1.008   -3.719779    7.782126    9.757854
  29 H     1.0000    0     1.008   -6.040615    9.081133    7.686565
  30 H     1.0000    0     1.008   -3.310378    8.275434    4.179386
  31 H     1.0000    0     1.008   -2.411346   10.470787    6.336172

--------------------------------
INTERNAL COORDINATES (ANGSTROEM)
--------------------------------
 V      0   0   0     0.000000000000     0.00000000     0.00000000
 S      1   0   0     2.450497783665     0.00000000     0.00000000
 S      1   2   0     2.449021040268    85.87264308     0.00000000
 S      1   2   3     2.449185670598    83.44258491   145.67456048
 S      1   2   3     2.451036812757   144.89459086    72.40870383
 O      1   2   3     1.596841147044   107.45353867   252.42159875
 C      3   1   2     1.769202001211   104.06616950   161.63790447
 C      7   3   1     1.358169756501   122.51238737   346.56229583
 C      2   1   3     1.770812111515   103.92326505   198.73027316
 C      9   2   1     1.357191923882   122.52123252    13.75706165
 S      7   3   1     1.803196599393   114.77517907   167.64021607
 S      8   7   3     1.803307251115   122.66551502   181.38194994
 S     10   9   2     1.800876873283   122.70326368   178.53034678
 S      9   2   1     1.801235492347   114.78254767   192.42917500
 C     12   8   7     1.826968673961   102.97838954    67.32431851
 C     13  10   9     1.785035351442   102.94173824   292.01152313
 C     11   7   3     1.826673094477   103.01291883   111.27189329
 C     14   9   2     1.784943873275   102.96444374   249.36110999
 C     17  11   7     1.546763588735   117.06259811    82.75397560
 H     17  11   7     1.099965971769   112.88864257   318.95709551
 H     17  11   7     1.104134610701   111.18719817   201.78392641
 H     19  17  11     1.101795331543   109.60835367   169.74977179
 H     19  17  11     1.096709515980   107.79520604    53.32542460
 H     15  12   8     1.104146361300   111.20044984   158.06554276
 H     15  12   8     1.099968939079   112.85548980    40.91142000
 C     16  13  10     1.586653091377   118.85033383    83.08573092
 H     18  14   9     1.166608736002   123.50295977   162.19770206
 H     18  14   9     1.149409500620   124.17685175    38.42550187
 H     26  16  13     1.102750915812   104.69359250    49.40638856
 H     26  16  13     1.103294163290   113.13236088   166.66582416
 H     16  13  10     1.149755141114   124.21048375   321.72289020
 H     16  13  10     1.166836239860   123.57011883   197.89278808

---------------------------
INTERNAL COORDINATES (A.U.)
---------------------------
 V      0   0   0     0.000000000000     0.00000000     0.00000000
 S      1   0   0     4.630769702907     0.00000000     0.00000000
 S      1   2   0     4.627979062317    85.87264308     0.00000000
 S      1   2   3     4.628290168555    83.44258491   145.67456048
 S      1   2   3     4.631788320270   144.89459086    72.40870383
 O      1   2   3     3.017592447291   107.45353867   252.42159875
 C      3   1   2     3.343307257875   104.06616950   161.63790447
 C      7   3   1     2.566568883161   122.51238737   346.56229583
 C      2   1   3     3.346349925395   103.92326505   198.73027316
 C      9   2   1     2.564721047307   122.52123252    13.75706165
 S      7   3   1     3.407547738470   114.77517907   167.64021607
 S      8   7   3     3.407756839921   122.66551502   181.38194994
 S     10   9   2     3.403164091417   122.70326368   178.53034678
 S      9   2   1     3.403841783234   114.78254767   192.42917500
 C     12   8   7     3.452470449040   102.97838954    67.32431851
 C     13  10   9     3.373227953593   102.94173824   292.01152313
 C     11   7   3     3.451911884763   103.01291883   111.27189329
 C     14   9   2     3.373055084910   102.96444374   249.36110999
 C     17  11   7     2.922959576630   117.06259811    82.75397560
 H     17  11   7     2.078634443275   112.88864257   318.95709551
 H     17  11   7     2.086512029208   111.18719817   201.78392641
 H     19  17  11     2.082091432250   109.60835367   169.74977179
 H     19  17  11     2.072480633667   107.79520604    53.32542460
 H     15  12   8     2.086534234623   111.20044984   158.06554276
 H     15  12   8     2.078640050679   112.85548980    40.91142000
 C     16  13  10     2.998339812242   118.85033383    83.08573092
 H     18  14   9     2.204571016484   123.50295977   162.19770206
 H     18  14   9     2.172069171899   124.17685175    38.42550187
 H     26  16  13     2.083897224816   104.69359250    49.40638856
 H     26  16  13     2.084923813771   113.13236088   166.66582416
 H     16  13  10     2.172722337773   124.21048375   321.72289020
 H     16  13  10     2.205000936469   123.57011883   197.89278808

---------------------
BASIS SET INFORMATION
---------------------
There are 5 groups of distinct atoms

 Group   1 Type V   : 17s11p5d1f contracted to 17s7p3d1f pattern {11111111111111111/3311111/311/1}
 Group   2 Type S   : 14s9p1d contracted to 5s4p1d pattern {73211/6111/1}
 Group   3 Type O   : 11s6p1d contracted to 5s3p1d pattern {62111/411/1}
 Group   4 Type C   : 11s6p1d contracted to 5s3p1d pattern {62111/411/1}
 Group   5 Type H   : 5s1p contracted to 3s1p pattern {311/1}

Atom   0V    basis set group =>   1
Atom   1S    basis set group =>   2
Atom   2S    basis set group =>   2
Atom   3S    basis set group =>   2
Atom   4S    basis set group =>   2
Atom   5O    basis set group =>   3
Atom   6C    basis set group =>   4
Atom   7C    basis set group =>   4
Atom   8C    basis set group =>   4
Atom   9C    basis set group =>   4
Atom  10S    basis set group =>   2
Atom  11S    basis set group =>   2
Atom  12S    basis set group =>   2
Atom  13S    basis set group =>   2
Atom  14C    basis set group =>   4
Atom  15C    basis set group =>   4
Atom  16C    basis set group =>   4
Atom  17C    basis set group =>   4
Atom  18C    basis set group =>   4
Atom  19H    basis set group =>   5
Atom  20H    basis set group =>   5
Atom  21H    basis set group =>   5
Atom  22H    basis set group =>   5
Atom  23H    basis set group =>   5
Atom  24H    basis set group =>   5
Atom  25C    basis set group =>   4
Atom  26H    basis set group =>   5
Atom  27H    basis set group =>   5
Atom  28H    basis set group =>   5
Atom  29H    basis set group =>   5
Atom  30H    basis set group =>   5
Atom  31H    basis set group =>   5

-------------------------
BASIS SET IN INPUT FORMAT
-------------------------

 # Basis set for element : H 
 NewGTO H 
 S 3 
   1      34.0613410000      0.0254393168
   2       5.1235746000      0.1900859340
   3       1.1646626000      0.8524411390
 S 1 
   1       0.3272304100      1.0000000000
 S 1 
   1       0.1030724100      1.0000000000
 P 1 
   1       0.8000000000      1.0000000000
  end;

 # Basis set for element : C 
 NewGTO C 
 S 6 
   1   13575.3496820000      0.0006064601
   2    2035.2333680000      0.0046978985
   3     463.2256235900      0.0243324735
   4     131.2001959800      0.0973999560
   5      42.8530158900      0.3019558443
   6      15.5841857700      0.6623361013
 S 2 
   1       6.2067138500      0.6559530795
   2       2.5764896500      0.3758563390
 S 1 
   1       0.5769633900      1.0000000000
 S 1 
   1       0.2297283100      1.0000000000
 S 1 
   1       0.0951644400      1.0000000000
 P 4 
   1      34.6972322400      0.0113272290
   2       7.9582622800      0.0761696612
   3       2.3780826900      0.3019225154
   4       0.8143320800      0.7278502776
 P 1 
   1       0.2888754700      1.0000000000
 P 1 
   1       0.1005682400      1.0000000000
 D 1 
   1       0.8000000000      1.0000000000
  end;

 # Basis set for element : O 
 NewGTO O 
 S 6 
   1   27032.3826310000      0.0005722654
   2    4052.3871392000      0.0044353333
   3     922.3272271000      0.0230201034
   4     261.2407098900      0.0928224938
   5      85.3546413500      0.2937849971
   6      31.0350352400      0.6740160462
 S 2 
   1      12.2608607300      0.6383993750
   2       4.9987076000      0.3953458663
 S 1 
   1       1.1703108200      1.0000000000
 S 1 
   1       0.4647474100      1.0000000000
 S 1 
   1       0.1850453600      1.0000000000
 P 4 
   1      63.2749548000      0.0120183316
   2      14.6270493800      0.0830054304
   3       4.4501223500      0.3199174388
   4       1.5275799600      0.7071554258
 P 1 
   1       0.5293511800      1.0000000000
 P 1 
   1       0.1747842100      1.0000000000
 D 1 
   1       1.2000000000      1.0000000000
  end;

 # Basis set for element : S 
 NewGTO S 
 S 7 
   1   60700.9281040000      0.0005238013
   2    9102.6106854000      0.0040506304
   3    2071.4166009000      0.0208270003
   4     586.0247682100      0.0814968475
   5     190.5539502100      0.2374911358
   6      67.6303842600      0.4472617145
   7      25.1273069100      0.3489191913
 S 3 
   1     112.5746301000      0.1004556993
   2      34.7955542200      0.4339117282
   3       6.5115556200     -1.2084330582
 S 2 
   1       3.2399032300      0.6749812922
   2       1.5477160900      0.3470879597
 S 1 
   1       0.4054103000      1.0000000000
 S 1 
   1       0.1455065100      1.0000000000
 P 6 
   1     564.3671602700      0.0025564845
   2     133.4262437900      0.0202874255
   3      42.4682711900      0.0927670112
   4      15.6165275800      0.2650208365
   5       6.1093988500      0.4486298663
   6       2.4404160200      0.3596369916
 P 1 
   1       0.8388220100      1.0000000000
 P 1 
   1       0.3128874700      1.0000000000
 P 1 
   1       0.1077010900      1.0000000000
 D 1 
   1       0.5500000000      1.0000000000
  end;

 # Basis set for element : V 
 NewGTO V 
 S 1 
   1  4239814.9912500000      1.0000000000
 S 1 
   1  1695925.9965000001      1.0000000000
 S 1 
   1  678370.3986000001      1.0000000000
 S 1 
   1  271348.1594400000      1.0000000000
 S 1 
   1   40672.0050780000      1.0000000000
 S 1 
   1    9257.0761385000      1.0000000000
 S 1 
   1    2622.7328773000      1.0000000000
 S 1 
   1     858.5948018500      1.0000000000
 S 1 
   1     314.1941865000      1.0000000000
 S 1 
   1     124.4786212700      1.0000000000
 S 1 
   1      50.4693993090      1.0000000000
 S 1 
   1      12.5138469110      1.0000000000
 S 1 
   1       5.3447758082      1.0000000000
 S 1 
   1       1.5755631295      1.0000000000
 S 1 
   1       0.6306903307      1.0000000000
 S 1 
   1       0.0879544416      1.0000000000
 S 1 
   1       0.0342969197      1.0000000000
 P 3 
   1    1450.0319327000     -0.0222847647
   2     343.7504988400     -0.1817959329
   3     110.8252170800     -0.8607412073
 P 3 
   1      41.8224645460     -0.2522537814
   2      17.0880737100     -0.4620379520
   3       7.2613218939     -0.3990010670
 P 1 
   1       2.9458145262      1.0000000000
 P 1 
   1       1.1650209680      1.0000000000
 P 1 
   1       0.4339937839      1.0000000000
 D 3 
   1      27.3603358640      0.0575501019
   2       7.4542765527      0.3023798347
   3       2.4632270217      0.7724212088
 D 1 
   1       0.8249954244      1.0000000000
 D 1 
   1       0.2526297057      1.0000000000
 P 1 
   1       0.1112480000      1.0000000000
 P 1 
   1       0.0363780000      1.0000000000
 F 1 
   1       1.8000000000      1.0000000000
  end;

---------------------------------
AUXILIARY/J BASIS SET INFORMATION
---------------------------------
There are 5 groups of distinct atoms

 Group   1 Type V   : 19s5p5d3f3g contracted to 8s5p5d2f3g pattern {121111111/11111/11111/21/111}
 Group   2 Type S   : 14s5p5d2f1g contracted to 8s4p3d1f1g pattern {71111111/2111/311/2/1}
 Group   3 Type O   : 12s5p4d2f1g contracted to 6s4p3d1f1g pattern {711111/2111/211/2/1}
 Group   4 Type C   : 12s5p4d2f1g contracted to 6s4p3d1f1g pattern {711111/2111/211/2/1}
 Group   5 Type H   : 5s2p1d contracted to 3s1p1d pattern {311/2/1}

Atom   0V    basis set group =>   1
Atom   1S    basis set group =>   2
Atom   2S    basis set group =>   2
Atom   3S    basis set group =>   2
Atom   4S    basis set group =>   2
Atom   5O    basis set group =>   3
Atom   6C    basis set group =>   4
Atom   7C    basis set group =>   4
Atom   8C    basis set group =>   4
Atom   9C    basis set group =>   4
Atom  10S    basis set group =>   2
Atom  11S    basis set group =>   2
Atom  12S    basis set group =>   2
Atom  13S    basis set group =>   2
Atom  14C    basis set group =>   4
Atom  15C    basis set group =>   4
Atom  16C    basis set group =>   4
Atom  17C    basis set group =>   4
Atom  18C    basis set group =>   4
Atom  19H    basis set group =>   5
Atom  20H    basis set group =>   5
Atom  21H    basis set group =>   5
Atom  22H    basis set group =>   5
Atom  23H    basis set group =>   5
Atom  24H    basis set group =>   5
Atom  25C    basis set group =>   4
Atom  26H    basis set group =>   5
Atom  27H    basis set group =>   5
Atom  28H    basis set group =>   5
Atom  29H    basis set group =>   5
Atom  30H    basis set group =>   5
Atom  31H    basis set group =>   5

-------------------------------------
AUXILIARY/J BASIS SET IN INPUT FORMAT
-------------------------------------

 # Auxiliary/J basis set for element : H 
 NewAuxJGTO H 
 S 3 
   1      15.6752927000      0.1007184237
   2       3.6063578000      0.3404257499
   3       1.2080016000      0.6491996172
 S 1 
   1       0.4726794000      1.0000000000
 S 1 
   1       0.2018100000      1.0000000000
 P 2 
   1       2.0281365000      0.5596620919
   2       0.5358730000      0.5596620919
 D 1 
   1       2.2165124000      1.0000000000
  end;

 # Auxiliary/J basis set for element : C 
 NewAuxJGTO C 
 S 7 
   1    1861.0916331000      0.0134602335
   2     642.9939764000      0.0299160374
   3     235.1105725000      0.1008649584
   4      90.7028894000      0.2370970548
   5      36.7794552000      0.3924037254
   6      15.6046273000      0.3195862154
   7       6.8907294000      0.0530104441
 S 1 
   1       3.1478850000     -1.0000000000
 S 1 
   1       1.4777287000      1.0000000000
 S 1 
   1       0.7076466000      1.0000000000
 S 1 
   1       0.3430122000      1.0000000000
 S 1 
   1       0.1669453000      1.0000000000
 P 2 
   1      13.5472892000     -0.6769313712
   2       5.4669419000     -0.3779500978
 P 1 
   1       2.1751721000      1.0000000000
 P 1 
   1       0.8582194000      1.0000000000
 P 1 
   1       0.3376720000      1.0000000000
 D 2 
   1       5.9287253000     -0.3533329857
   2       1.9809209000     -0.7456525731
 D 1 
   1       0.8055417000     -1.0000000000
 D 1 
   1       0.3531244000     -1.0000000000
 F 2 
   1       1.6755626000      0.6311076882
   2       0.5997536000      0.4968166032
 G 1 
   1       1.0024600000     -1.0000000000
  end;

 # Auxiliary/J basis set for element : O 
 NewAuxJGTO O 
 S 7 
   1    2876.8216605000      0.0168151159
   2    1004.7443032000      0.0340137548
   3     369.7579954000      0.1194951309
   4     142.9442404000      0.2664627624
   5      57.8366425000      0.4202764046
   6      24.3864983000      0.2765077335
   7      10.6622662000      0.0057008815
 S 1 
   1       4.8070437000     -1.0000000000
 S 1 
   1       2.2210770000      1.0000000000
 S 1 
   1       1.0447795000      1.0000000000
 S 1 
   1       0.4968425000      1.0000000000
 S 1 
   1       0.2371384000      1.0000000000
 P 2 
   1      64.2613382000     -0.2731534179
   2      16.3006076000     -0.8168011598
 P 1 
   1       4.3550542000      1.0000000000
 P 1 
   1       1.2019554000      1.0000000000
 P 1 
   1       0.3354196000      1.0000000000
 D 2 
   1       9.2146611000     -0.4661230638
   2       2.8435251000     -0.6600908911
 D 1 
   1       0.9955759000     -1.0000000000
 D 1 
   1       0.3649441000     -1.0000000000
 F 2 
   1       2.6420115000      0.5931563945
   2       0.7345613000      0.5931563945
 G 1 
   1       1.3931000000     -1.0000000000
  end;

 # Auxiliary/J basis set for element : S 
 NewAuxJGTO S 
 S 7 
   1    7399.0303145000      0.0295137551
   2    2710.1675859000      0.0559686311
   3    1034.3279062000      0.1764696370
   4     410.4645411000      0.3577969368
   5     168.9762502000      0.4299293578
   6      71.9687889000      0.1259148089
   7      31.6172683000     -0.0646025788
 S 1 
   1      14.2796836000      1.0000000000
 S 1 
   1       6.6060948000      1.0000000000
 S 1 
   1       3.1181477000      1.0000000000
 S 1 
   1       1.4954039000     -1.0000000000
 S 1 
   1       0.7254779000      1.0000000000
 S 1 
   1       0.3544216000      1.0000000000
 S 1 
   1       0.1735525000      1.0000000000
 P 2 
   1      12.6998799000      1.4059102813
   2       4.4295784000     -1.2124994202
 P 1 
   1       1.5232889000      1.0000000000
 P 1 
   1       0.5194667000     -1.0000000000
 P 1 
   1       0.1766547000     -1.0000000000
 D 3 
   1      16.8546461000      1.0295742104
   2       5.0810461000     -0.7461553923
   3       1.5102323000      0.8357028005
 D 1 
   1       0.4451331000      1.0000000000
 D 1 
   1       0.1308362000      1.0000000000
 F 2 
   1       1.0809860000      0.5572698934
   2       0.4161474000      0.5572698934
 G 1 
   1       0.6707100000     -1.0000000000
  end;

 # Auxiliary/J basis set for element : V 
 NewAuxJGTO V 
 S 12 
   1   11942.0842430000      0.0459866720
   2    2430.7110193000      0.1744615821
   3     841.0764301000      0.2900402792
   4     494.7508273000      0.1411212903
   5     291.0298903000      0.2660697186
   6     171.1940483000      0.0446365706
   7      59.2366916000     -0.0408204801
   8      34.8451117000      0.1394665381
   9      20.4971240000      0.2164746715
  10      12.0571314000      0.0864266611
  11       7.0924300000     -0.0568501658
  12       4.1720176000     -0.0126212852
 S 1 
   1       2.4541279000      1.0000000000
 S 1 
   1       1.4436046000      1.0000000000
 S 1 
   1       0.8491792000      1.0000000000
 S 1 
   1       0.2938336000      1.0000000000
 S 1 
   1       0.1728433000      1.0000000000
 S 1 
   1       0.1016725000      1.0000000000
 S 1 
   1       0.0598074000      1.0000000000
 P 1 
   1      16.7130979000     -1.0000000000
 P 1 
   1       4.7454037000     -1.0000000000
 P 1 
   1       1.3889998000      1.0000000000
 P 1 
   1       0.4142440000     -1.0000000000
 P 1 
   1       0.1243234000      1.0000000000
 D 1 
   1       7.7143225000      1.0000000000
 D 1 
   1       3.1170731000      1.0000000000
 D 1 
   1       1.2767950000     -1.0000000000
 D 1 
   1       0.5273386000      1.0000000000
 D 1 
   1       0.2184050000      1.0000000000
 F 2 
   1       3.1309344000     -1.0825667766
   2       1.0419780000      0.1809223232
 F 1 
   1       0.3559044000      1.0000000000
 G 1 
   1       8.7130110000      1.0000000000
 G 1 
   1       2.7493872000      1.0000000000
 G 1 
   1       0.8775089000      1.0000000000
  end;



           ************************************************************
           *        Program running with 4 parallel MPI-processes     *
           *              working on a common directory               *
           ************************************************************
------------------------------------------------------------------------------
                           ORCA GTO INTEGRAL CALCULATION
                           -- RI-GTO INTEGRALS CHOSEN --
------------------------------------------------------------------------------
------------------------------------------------------------------------------
                   ___                                                        
                  /   \      - P O W E R E D   B Y -                         
                 /     \                                                     
                 |  |  |   _    _      __       _____    __    __             
                 |  |  |  | |  | |    /  \     |  _  \  |  |  /  |          
                  \  \/   | |  | |   /    \    | | | |  |  | /  /          
                 / \  \   | |__| |  /  /\  \   | |_| |  |  |/  /          
                |  |  |   |  __  | /  /__\  \  |    /   |      \           
                |  |  |   | |  | | |   __   |  |    \   |  |\   \          
                \     /   | |  | | |  |  |  |  | |\  \  |  | \   \       
                 \___/    |_|  |_| |__|  |__|  |_| \__\ |__|  \__/        
                                                                              
                      - O R C A' S   B I G   F R I E N D -                    
                                      &                                       
                       - I N T E G R A L  F E E D E R -                       
                                                                              
 v1 FN, 2020, v2 2021                                                         
------------------------------------------------------------------------------


Reading SHARK input file input_65.SHARKINP.tmp ... ok
----------------------
SHARK INTEGRAL PACKAGE
----------------------

Number of atoms                             ...     32
Number of basis functions                   ...    517
Number of shells                            ...    255
Maximum angular momentum                    ...      3
Integral batch strategy                     ... SHARK/LIBINT Hybrid
RI-J (if used) integral strategy            ... SPLIT-RIJ (Revised 2003 algorithm where possible)
Printlevel                                  ...      1
Contraction scheme used                     ... SEGMENTED contraction
Coulomb Range Separation                    ... NOT USED
Exchange Range Separation                   ... NOT USED
Finite Nucleus Model                        ... NOT USED
Auxiliary Coulomb fitting basis             ... AVAILABLE
   # of basis functions in Aux-J            ...   1168
   # of shells in Aux-J                     ...    384
   Maximum angular momentum in Aux-J        ...      4
Auxiliary J/K fitting basis                 ... NOT available
Auxiliary Correlation fitting basis         ... NOT available
Auxiliary 'external' fitting basis          ... NOT available
Integral threshold                          ...     1.000000e-10
Primitive cut-off                           ...     1.000000e-11
Primitive pair pre-selection threshold      ...     1.000000e-11

Calculating pre-screening integrals         ... done (  0.1 sec) Dimension = 255
Organizing shell pair data                  ... done (  0.1 sec)
Shell pair information
Total number of shell pairs                 ...     32640
Shell pairs after pre-screening             ...     17784
Total number of primitive shell pairs       ...    123863
Primitive shell pairs kept                  ...     41557
          la=0 lb=0:   5342 shell pairs
          la=1 lb=0:   7063 shell pairs
          la=1 lb=1:   2297 shell pairs
          la=2 lb=0:   1672 shell pairs
          la=2 lb=1:   1119 shell pairs
          la=2 lb=2:    153 shell pairs
          la=3 lb=0:     73 shell pairs
          la=3 lb=1:     52 shell pairs
          la=3 lb=2:     12 shell pairs
          la=3 lb=3:      1 shell pairs

Calculating one electron integrals          ... done (  0.0 sec)
Calculating RI/J V-Matrix + Cholesky decomp.... done (  0.1 sec)
Calculating Nuclear repulsion               ... done (  0.0 sec) ENN=   3210.254833006597 Eh

SHARK setup successfully completed in   0.5 seconds

Maximum memory used throughout the entire GTOINT-calculation: 31.8 MB


           ************************************************************
           *        Program running with 4 parallel MPI-processes     *
           *              working on a common directory               *
           ************************************************************
-------------------------------------------------------------------------------
                                 ORCA SCF
-------------------------------------------------------------------------------

------------
SCF SETTINGS
------------
Hamiltonian:
 Density Functional     Method          .... DFT(GTOs)
 Exchange Functional    Exchange        .... B88
   X-Alpha parameter    XAlpha          ....  0.666667
   Becke's b parameter  XBeta           ....  0.004200
 Correlation Functional Correlation     .... LYP
 LDA part of GGA corr.  LDAOpt          .... VWN-5
 Gradients option       PostSCFGGA      .... off
 Hybrid DFT is turned on
   Fraction HF Exchange ScalHFX         ....  0.200000
   Scaling of DF-GGA-X  ScalDFX         ....  0.720000
   Scaling of DF-GGA-C  ScalDFC         ....  0.810000
   Scaling of DF-LDA-C  ScalLDAC        ....  1.000000
   Perturbative correction              ....  0.000000
   Density functional embedding theory  .... OFF
   NL short-range parameter             ....  4.800000
 RI-approximation to the Coulomb term is turned on
   Number of AuxJ basis functions       .... 1168
   RIJ-COSX (HFX calculated with COS-X)).... on


General Settings:
 Integral files         IntName         .... input_65
 Hartree-Fock type      HFTyp           .... UHF
 Total Charge           Charge          ....   -2
 Multiplicity           Mult            ....    2
 Number of Electrons    NEL             ....  233
 Basis Dimension        Dim             ....  517
 Nuclear Repulsion      ENuc            ....   3210.2548330066 Eh

Convergence Acceleration:
 DIIS                   CNVDIIS         .... on
   Start iteration      DIISMaxIt       ....    12
   Startup error        DIISStart       ....  0.200000
   # of expansion vecs  DIISMaxEq       ....     5
   Bias factor          DIISBfac        ....   1.050
   Max. coefficient     DIISMaxC        ....  10.000
 Trust-Rad. Augm. Hess. CNVTRAH         .... auto
   Auto Start mean grad. ratio tolernc. ....  1.125000
   Auto Start start iteration           ....    20
   Auto Start num. interpolation iter.  ....    10
   Max. Number of Micro iterations      ....    16
   Max. Number of Macro iterations      .... Maxiter - #DIIS iter
   Number of Davidson start vectors     ....     2
   Converg. threshold I  (grad. norm)   ....   5.000e-05
   Converg. threshold II (energy diff.) ....   1.000e-06
   Grad. Scal. Fac. for Micro threshold ....   0.100
   Minimum threshold for Micro iter.    ....   0.010
   NR start threshold (gradient norm)   ....   0.001
   Initial trust radius                 ....   0.400
   Minimum AH scaling param. (alpha)    ....   1.000
   Maximum AH scaling param. (alpha)    .... 1000.000
   Orbital update algorithm             .... Taylor
   White noise on init. David. guess    .... on
   Maximum white noise                  ....   0.010
   Quad. conv. algorithm                .... NR
 SOSCF                  CNVSOSCF        .... off
 Level Shifting         CNVShift        .... on
   Level shift para.    LevelShift      ....    0.2500
   Turn off err/grad.   ShiftErr        ....    0.0010
 Zerner damping         CNVZerner       .... off
 Static damping         CNVDamp         .... on
   Fraction old density DampFac         ....    0.7000
   Max. Damping (<1)    DampMax         ....    0.9800
   Min. Damping (>=0)   DampMin         ....    0.0000
   Turn off err/grad.   DampErr         ....    0.1000
 Fernandez-Rico         CNVRico         .... off

SCF Procedure:
 Maximum # iterations   MaxIter         ....   125
 SCF integral mode      SCFMode         .... Direct
   Integral package                     .... SHARK and LIBINT hybrid scheme
 Reset frequency        DirectResetFreq ....    20
 Integral Threshold     Thresh          ....  1.000e-10 Eh
 Primitive CutOff       TCut            ....  1.000e-11 Eh

Convergence Tolerance:
 Convergence Check Mode ConvCheckMode   .... Total+1el-Energy
 Convergence forced     ConvForced      .... 0
 Energy Change          TolE            ....  1.000e-06 Eh
 1-El. energy change                    ....  1.000e-03 Eh
 DIIS Error             TolErr          ....  1.000e-06


Diagonalization of the overlap matrix:
Smallest eigenvalue                        ... 1.854e-04
Time for diagonalization                   ...    0.134 sec
Threshold for overlap eigenvalues          ... 1.000e-08
Number of eigenvalues below threshold      ... 0
Time for construction of square roots      ...    0.072 sec
Total time needed                          ...    0.208 sec

Time for model grid setup =    0.354 sec

------------------------------
INITIAL GUESS: MODEL POTENTIAL
------------------------------
Loading Hartree-Fock densities                     ... done
Calculating cut-offs                               ... done
Initializing the effective Hamiltonian             ... done
Setting up the integral package (SHARK)            ... done
Starting the Coulomb interaction                   ... done (   0.4 sec)
Reading the grid                                   ... done
Mapping shells                                     ... done
Starting the XC term evaluation                    ... done (   0.2 sec)
  promolecular density results
     # of electrons  =    230.994993109
     EX              =   -307.513867957
     EC              =     -9.024799611
     EX+EC           =   -316.538667568
Transforming the Hamiltonian                       ... done (   0.1 sec)
Diagonalizing the Hamiltonian                      ... done (   0.1 sec)
Back transforming the eigenvectors                 ... done (   0.0 sec)
Now organizing SCF variables                       ... done
                      ------------------
                      INITIAL GUESS DONE (   1.1 sec)
                      ------------------
-------------------
DFT GRID GENERATION
-------------------

General Integration Accuracy     IntAcc      ... 4.388
Radial Grid Type                 RadialGrid  ... OptM3 with GC (2021)
Angular Grid (max. ang.)         AngularGrid ... 4 (Lebedev-302)
Angular grid pruning method      GridPruning ... 4 (adaptive)
Weight generation scheme         WeightScheme... Becke
Basis function cutoff            BFCut       ... 1.0000e-10
Integration weight cutoff        WCut        ... 1.0000e-14
Angular grids for H and He will be reduced by one unit
Partially contracted basis set               ... off
Rotationally invariant grid construction     ... off

Total number of grid points                  ...   184172
Total number of batches                      ...     2894
Average number of points per batch           ...       63
Average number of grid points per atom       ...     5755
Time for grid setup =    1.600 sec

--------------------
COSX GRID GENERATION
--------------------

GRIDX 1
-------
General Integration Accuracy     IntAcc      ... 3.816
Radial Grid Type                 RadialGrid  ... OptM3 with GC (2021)
Angular Grid (max. ang.)         AngularGrid ... 1 (Lebedev-50)
Angular grid pruning method      GridPruning ... 4 (adaptive)
Weight generation scheme         WeightScheme... Becke
Basis function cutoff            BFCut       ... 1.0000e-10
Integration weight cutoff        WCut        ... 1.0000e-14
Angular grids for H and He will be reduced by one unit
Partially contracted basis set               ... on
Rotationally invariant grid construction     ... off

Total number of grid points                  ...    22814
Total number of batches                      ...      377
Average number of points per batch           ...       60
Average number of grid points per atom       ...      713
UseSFitting                                  ... on

GRIDX 2
-------
General Integration Accuracy     IntAcc      ... 4.020
Radial Grid Type                 RadialGrid  ... OptM3 with GC (2021)
Angular Grid (max. ang.)         AngularGrid ... 2 (Lebedev-110)
Angular grid pruning method      GridPruning ... 4 (adaptive)
Weight generation scheme         WeightScheme... Becke
Basis function cutoff            BFCut       ... 1.0000e-10
Integration weight cutoff        WCut        ... 1.0000e-14
Angular grids for H and He will be reduced by one unit
Partially contracted basis set               ... on
Rotationally invariant grid construction     ... off

Total number of grid points                  ...    49211
Total number of batches                      ...      786
Average number of points per batch           ...       62
Average number of grid points per atom       ...     1538
UseSFitting                                  ... on

GRIDX 3
-------
General Integration Accuracy     IntAcc      ... 4.338
Radial Grid Type                 RadialGrid  ... OptM3 with GC (2021)
Angular Grid (max. ang.)         AngularGrid ... 3 (Lebedev-194)
Angular grid pruning method      GridPruning ... 4 (adaptive)
Weight generation scheme         WeightScheme... Becke
Basis function cutoff            BFCut       ... 1.0000e-10
Integration weight cutoff        WCut        ... 1.0000e-14
Angular grids for H and He will be reduced by one unit
Partially contracted basis set               ... on
Rotationally invariant grid construction     ... off

Total number of grid points                  ...   112219
Total number of batches                      ...     1767
Average number of points per batch           ...       63
Average number of grid points per atom       ...     3507
UseSFitting                                  ... on

Time for X-Grid setup             =    1.798 sec

--------------
SCF ITERATIONS
--------------
ITER       Energy         Delta-E        Max-DP      RMS-DP      [F,P]     Damp
               ***  Starting incremental Fock matrix formation  ***
  0  -4591.9532013089   0.000000000000 0.06191627  0.00085274  0.2236759 0.7000
  1  -4592.2361841746  -0.282982865654 0.09477081  0.00081133  0.1560040 0.7000
                               ***Turning on DIIS***
  2  -4592.3817260920  -0.145541917394 0.06653331  0.00049733  0.1091609 0.7000
  3  -4592.4613277072  -0.079601615269 0.08990830  0.00079644  0.0772161 0.0000
  4  -4592.6503612605  -0.189033553253 0.05712129  0.00043205  0.0139993 0.0000
  5  -4592.6557722706  -0.005411010128 0.00974644  0.00009648  0.0096476 0.0000
  6  -4592.6569910659  -0.001218795281 0.00194459  0.00004485  0.0026157 0.0000
  7  -4592.6571884946  -0.000197428654 0.00148505  0.00002192  0.0013180 0.0000
  8  -4592.6572537323  -0.000065237702 0.00084230  0.00001521  0.0010739 0.0000
  9  -4592.6572906272  -0.000036894980 0.00186667  0.00002174  0.0007792 0.0000
               *** Restarting incremental Fock matrix formation ***
                                   *** Resetting DIIS ***
 10  -4592.6573588049  -0.000068177616 0.00097632  0.00001370  0.0006654 0.0000
 11  -4592.6573384021   0.000020402727 0.00031866  0.00000349  0.0018333 0.0000
 12  -4592.6573658829  -0.000027480773 0.00054539  0.00000590  0.0007350 0.0000
 13  -4592.6573717292  -0.000005846291 0.00034698  0.00000374  0.0002540 0.0000
 14  -4592.6573739788  -0.000002249653 0.00026539  0.00000240  0.0001969 0.0000
 15  -4592.6573749407  -0.000000961849 0.00025408  0.00000194  0.0001138 0.0000
 16  -4592.6573751945  -0.000000253760 0.00017760  0.00000134  0.0000560 0.0000
 17  -4592.6573753609  -0.000000166485 0.00003443  0.00000055  0.0000136 0.0000
 18  -4592.6573752216   0.000000139347 0.00002685  0.00000041  0.0000159 0.0000
 19  -4592.6573753936  -0.000000172017 0.00001167  0.00000013  0.0000294 0.0000
                 **** Energy Check signals convergence ****

               *****************************************************
               *                     SUCCESS                       *
               *           SCF CONVERGED AFTER  20 CYCLES          *
               *****************************************************

Old exchange energy                            =    -61.739107558 Eh
New exchange energy                            =    -61.739119381 Eh
Exchange energy change after final integration =     -0.000011824 Eh
Total energy after final integration           =  -4592.657387272 Eh
Final COS-X integration done in                =    25.083 sec

----------------
TOTAL SCF ENERGY
----------------

Total Energy       :        -4592.65738727 Eh         -124972.56099 eV

Components:
Nuclear Repulsion  :         3210.25483301 Eh           87355.47507 eV
Electronic Energy  :        -7802.91222028 Eh         -212328.03606 eV
One Electron Energy:       -12783.54066028 Eh         -347857.82612 eV
Two Electron Energy:         4980.62844000 Eh          135529.79005 eV
Max COSX asymmetry :            0.00000131 Eh               0.00004 eV

Virial components:
Potential Energy   :        -9173.40969118 Eh         -249621.16819 eV
Kinetic Energy     :         4580.75230391 Eh          124648.60720 eV
Virial Ratio       :            2.00259894


DFT components:
N(Alpha)           :      116.999984443311 electrons
N(Beta)            :      115.999983972376 electrons
N(Total)           :      232.999968415687 electrons
E(X)               :     -245.411382169561 Eh       
E(C)               :      -10.620911282047 Eh       
E(XC)              :     -256.032293451608 Eh       
DFET-embed. en.    :        0.000000000000 Eh       

---------------
SCF CONVERGENCE
---------------

  Last Energy change         ...   -5.4511e-08  Tolerance :   1.0000e-06
  Last MAX-Density change    ...    0.0000e+00  Tolerance :   1.0000e-05
  Last RMS-Density change    ...    0.0000e+00  Tolerance :   1.0000e-06
  Last DIIS Error            ...    9.7582e-06  Tolerance :   1.0000e-06

             **** THE GBW FILE WAS UPDATED (input_65.gbw) ****
             **** DENSITY input_65.scfp WAS UPDATED ****
             **** ENERGY FILE WAS UPDATED (input_65.en.tmp) ****
----------------------
UHF SPIN CONTAMINATION
----------------------

Warning: in a DFT calculation there is little theoretical justification to 
         calculate <S**2> as in Hartree-Fock theory. We will do it anyways
         but you should keep in mind that the values have only limited relevance

Expectation value of <S**2>     :     0.764897
Ideal value S*(S+1) for S=0.5   :     0.750000
Deviation                       :     0.014897

             **** THE GBW FILE WAS UPDATED (input_65.gbw) ****
             **** DENSITY input_65.scfp WAS UPDATED ****
----------------
ORBITAL ENERGIES
----------------
                 SPIN UP ORBITALS
  NO   OCC          E(Eh)            E(eV) 
   0   1.0000    -196.643525     -5350.9424 
   1   1.0000     -88.688719     -2413.3427 
   2   1.0000     -88.688682     -2413.3417 
   3   1.0000     -88.681142     -2413.1366 
   4   1.0000     -88.681083     -2413.1349 
   5   1.0000     -88.616531     -2411.3784 
   6   1.0000     -88.616483     -2411.3771 
   7   1.0000     -88.614894     -2411.3339 
   8   1.0000     -88.614875     -2411.3333 
   9   1.0000     -22.019319      -599.1761 
  10   1.0000     -18.860470      -513.2195 
  11   1.0000     -18.526144      -504.1220 
  12   1.0000     -18.520368      -503.9648 
  13   1.0000     -18.520336      -503.9640 
  14   1.0000     -10.022099      -272.7152 
  15   1.0000     -10.022055      -272.7140 
  16   1.0000     -10.016063      -272.5509 
  17   1.0000     -10.016036      -272.5502 
  18   1.0000     -10.002626      -272.1853 
  19   1.0000     -10.000449      -272.1260 
  20   1.0000      -9.998802      -272.0812 
  21   1.0000      -9.998077      -272.0615 
  22   1.0000      -9.995274      -271.9852 
  23   1.0000      -9.994544      -271.9654 
  24   1.0000      -7.742288      -210.6784 
  25   1.0000      -7.742238      -210.6770 
  26   1.0000      -7.734729      -210.4727 
  27   1.0000      -7.734677      -210.4713 
  28   1.0000      -7.670864      -208.7348 
  29   1.0000      -7.670806      -208.7332 
  30   1.0000      -7.669302      -208.6923 
  31   1.0000      -7.669284      -208.6918 
  32   1.0000      -5.707784      -155.3167 
  33   1.0000      -5.707726      -155.3151 
  34   1.0000      -5.703557      -155.2017 
  35   1.0000      -5.703512      -155.2004 
  36   1.0000      -5.700051      -155.1063 
  37   1.0000      -5.700003      -155.1050 
  38   1.0000      -5.696858      -155.0194 
  39   1.0000      -5.696818      -155.0183 
  40   1.0000      -5.696074      -154.9981 
  41   1.0000      -5.696026      -154.9968 
  42   1.0000      -5.689424      -154.8171 
  43   1.0000      -5.689362      -154.8154 
  44   1.0000      -5.635781      -153.3574 
  45   1.0000      -5.635747      -153.3565 
  46   1.0000      -5.634146      -153.3129 
  47   1.0000      -5.634143      -153.3128 
  48   1.0000      -5.629249      -153.1796 
  49   1.0000      -5.629194      -153.1781 
  50   1.0000      -5.628820      -153.1680 
  51   1.0000      -5.628763      -153.1664 
  52   1.0000      -5.627741      -153.1386 
  53   1.0000      -5.627716      -153.1379 
  54   1.0000      -5.627274      -153.1259 
  55   1.0000      -5.627258      -153.1255 
  56   1.0000      -2.412985       -65.6607 
  57   1.0000      -1.454312       -39.5738 
  58   1.0000      -1.442778       -39.2600 
  59   1.0000      -1.441692       -39.2304 
  60   1.0000      -0.643329       -17.5059 
  61   1.0000      -0.642257       -17.4767 
  62   1.0000      -0.621405       -16.9093 
  63   1.0000      -0.594660       -16.1815 
  64   1.0000      -0.592234       -16.1155 
  65   1.0000      -0.579956       -15.7814 
  66   1.0000      -0.577353       -15.7106 
  67   1.0000      -0.497460       -13.5366 
  68   1.0000      -0.492574       -13.4036 
  69   1.0000      -0.488687       -13.2978 
  70   1.0000      -0.485493       -13.2109 
  71   1.0000      -0.428622       -11.6634 
  72   1.0000      -0.425115       -11.5680 
  73   1.0000      -0.411259       -11.1909 
  74   1.0000      -0.404280       -11.0010 
  75   1.0000      -0.376485       -10.2447 
  76   1.0000      -0.369882       -10.0650 
  77   1.0000      -0.286560        -7.7977 
  78   1.0000      -0.286518        -7.7966 
  79   1.0000      -0.278250        -7.5716 
  80   1.0000      -0.272083        -7.4038 
  81   1.0000      -0.260573        -7.0906 
  82   1.0000      -0.258539        -7.0352 
  83   1.0000      -0.235042        -6.3958 
  84   1.0000      -0.211621        -5.7585 
  85   1.0000      -0.203685        -5.5425 
  86   1.0000      -0.197261        -5.3677 
  87   1.0000      -0.187907        -5.1132 
  88   1.0000      -0.180469        -4.9108 
  89   1.0000      -0.180397        -4.9089 
  90   1.0000      -0.172460        -4.6929 
  91   1.0000      -0.167943        -4.5700 
  92   1.0000      -0.154695        -4.2095 
  93   1.0000      -0.154499        -4.2041 
  94   1.0000      -0.145260        -3.9527 
  95   1.0000      -0.144518        -3.9325 
  96   1.0000      -0.131639        -3.5821 
  97   1.0000      -0.102548        -2.7905 
  98   1.0000      -0.097750        -2.6599 
  99   1.0000      -0.096791        -2.6338 
 100   1.0000      -0.089562        -2.4371 
 101   1.0000      -0.083772        -2.2796 
 102   1.0000      -0.083377        -2.2688 
 103   1.0000      -0.074268        -2.0209 
 104   1.0000      -0.054819        -1.4917 
 105   1.0000      -0.043574        -1.1857 
 106   1.0000      -0.040446        -1.1006 
 107   1.0000      -0.039901        -1.0857 
 108   1.0000      -0.034026        -0.9259 
 109   1.0000      -0.017041        -0.4637 
 110   1.0000      -0.008330        -0.2267 
 111   1.0000      -0.006613        -0.1799 
 112   1.0000       0.003087         0.0840 
 113   1.0000       0.007380         0.2008 
 114   1.0000       0.012843         0.3495 
 115   1.0000       0.029020         0.7897 
 116   1.0000       0.055569         1.5121 
 117   0.0000       0.183583         4.9955 
 118   0.0000       0.189197         5.1483 
 119   0.0000       0.192123         5.2279 
 120   0.0000       0.194681         5.2975 
 121   0.0000       0.206959         5.6316 
 122   0.0000       0.209801         5.7090 
 123   0.0000       0.212389         5.7794 
 124   0.0000       0.214991         5.8502 
 125   0.0000       0.222626         6.0580 
 126   0.0000       0.231887         6.3100 
 127   0.0000       0.238758         6.4969 
 128   0.0000       0.241539         6.5726 
 129   0.0000       0.243805         6.6343 
 130   0.0000       0.244404         6.6506 
 131   0.0000       0.247238         6.7277 
 132   0.0000       0.248177         6.7533 
 133   0.0000       0.254641         6.9291 
 134   0.0000       0.259142         7.0516 
 135   0.0000       0.264785         7.2052 
 136   0.0000       0.265600         7.2274 
 137   0.0000       0.269694         7.3387 
 138   0.0000       0.277891         7.5618 
 139   0.0000       0.282848         7.6967 
 140   0.0000       0.284691         7.7468 
 141   0.0000       0.286372         7.7926 
 142   0.0000       0.287046         7.8109 
 143   0.0000       0.295170         8.0320 
 144   0.0000       0.304274         8.2797 
 145   0.0000       0.311878         8.4866 
 146   0.0000       0.314132         8.5480 
 147   0.0000       0.317618         8.6428 
 148   0.0000       0.319087         8.6828 
 149   0.0000       0.325251         8.8505 
 150   0.0000       0.344793         9.3823 
 151   0.0000       0.353014         9.6060 
 152   0.0000       0.358941         9.7673 
 153   0.0000       0.371882        10.1194 
 154   0.0000       0.390773        10.6335 
 155   0.0000       0.393663        10.7121 
 156   0.0000       0.394609        10.7379 
 157   0.0000       0.395190        10.7537 
 158   0.0000       0.399139        10.8611 
 159   0.0000       0.410354        11.1663 
 160   0.0000       0.421973        11.4825 
 161   0.0000       0.423420        11.5218 
 162   0.0000       0.426294        11.6000 
 163   0.0000       0.431053        11.7295 
 164   0.0000       0.448233        12.1971 
 165   0.0000       0.449424        12.2294 
 166   0.0000       0.450575        12.2608 
 167   0.0000       0.454665        12.3721 
 168   0.0000       0.456092        12.4109 
 169   0.0000       0.466429        12.6922 
 170   0.0000       0.468396        12.7457 
 171   0.0000       0.473181        12.8759 
 172   0.0000       0.479478        13.0473 
 173   0.0000       0.483668        13.1613 
 174   0.0000       0.485334        13.2066 
 175   0.0000       0.490451        13.3459 
 176   0.0000       0.493315        13.4238 
 177   0.0000       0.497415        13.5354 
 178   0.0000       0.499759        13.5991 
 179   0.0000       0.499914        13.6033 
 180   0.0000       0.506306        13.7773 
 181   0.0000       0.510765        13.8986 
 182   0.0000       0.518924        14.1206 
 183   0.0000       0.520608        14.1665 
 184   0.0000       0.524461        14.2713 
 185   0.0000       0.540513        14.7081 
 186   0.0000       0.542561        14.7638 
 187   0.0000       0.550618        14.9831 
 188   0.0000       0.551122        14.9968 
 189   0.0000       0.551726        15.0132 
 190   0.0000       0.556597        15.1458 
 191   0.0000       0.563823        15.3424 
 192   0.0000       0.571294        15.5457 
 193   0.0000       0.573197        15.5975 
 194   0.0000       0.574909        15.6441 
 195   0.0000       0.575497        15.6601 
 196   0.0000       0.579316        15.7640 
 197   0.0000       0.580507        15.7964 
 198   0.0000       0.583602        15.8806 
 199   0.0000       0.583745        15.8845 
 200   0.0000       0.586956        15.9719 
 201   0.0000       0.592163        16.1136 
 202   0.0000       0.602706        16.4005 
 203   0.0000       0.605980        16.4896 
 204   0.0000       0.610197        16.6043 
 205   0.0000       0.611913        16.6510 
 206   0.0000       0.618493        16.8301 
 207   0.0000       0.618670        16.8349 
 208   0.0000       0.628889        17.1129 
 209   0.0000       0.633189        17.2299 
 210   0.0000       0.635686        17.2979 
 211   0.0000       0.639263        17.3952 
 212   0.0000       0.644229        17.5304 
 213   0.0000       0.646950        17.6044 
 214   0.0000       0.650661        17.7054 
 215   0.0000       0.653413        17.7803 
 216   0.0000       0.659167        17.9369 
 217   0.0000       0.661675        18.0051 
 218   0.0000       0.662799        18.0357 
 219   0.0000       0.666637        18.1401 
 220   0.0000       0.669591        18.2205 
 221   0.0000       0.677503        18.4358 
 222   0.0000       0.688748        18.7418 
 223   0.0000       0.704126        19.1602 
 224   0.0000       0.718924        19.5629 
 225   0.0000       0.725979        19.7549 
 226   0.0000       0.730621        19.8812 
 227   0.0000       0.738297        20.0901 
 228   0.0000       0.745341        20.2818 
 229   0.0000       0.745676        20.2909 
 230   0.0000       0.772196        21.0125 
 231   0.0000       0.772844        21.0302 
 232   0.0000       0.774695        21.0805 
 233   0.0000       0.799924        21.7670 
 234   0.0000       0.807667        21.9777 
 235   0.0000       0.836836        22.7715 
 236   0.0000       0.855355        23.2754 
 237   0.0000       0.863778        23.5046 
 238   0.0000       0.870017        23.6744 
 239   0.0000       0.885253        24.0890 
 240   0.0000       0.898448        24.4480 
 241   0.0000       0.901987        24.5443 
 242   0.0000       0.904387        24.6096 
 243   0.0000       0.908247        24.7147 
 244   0.0000       0.919523        25.0215 
 245   0.0000       0.924403        25.1543 
 246   0.0000       0.927734        25.2449 
 247   0.0000       0.944013        25.6879 
 248   0.0000       0.955569        26.0024 
 249   0.0000       0.962291        26.1853 
 250   0.0000       0.969583        26.3837 
 251   0.0000       0.973089        26.4791 
 252   0.0000       0.978400        26.6236 
 253   0.0000       0.984604        26.7924 
 254   0.0000       0.991791        26.9880 
 255   0.0000       0.996085        27.1048 
 256   0.0000       1.001180        27.2435 
 257   0.0000       1.008606        27.4456 
 258   0.0000       1.016047        27.6480 
 259   0.0000       1.028059        27.9749 
 260   0.0000       1.030952        28.0536 
 261   0.0000       1.049195        28.5501 
 262   0.0000       1.052680        28.6449 
 263   0.0000       1.055356        28.7177 
 264   0.0000       1.072561        29.1859 
 265   0.0000       1.080953        29.4142 
 266   0.0000       1.090838        29.6832 
 267   0.0000       1.115872        30.3644 
 268   0.0000       1.116218        30.3738 
 269   0.0000       1.120107        30.4796 
 270   0.0000       1.121562        30.5193 
 271   0.0000       1.130565        30.7642 
 272   0.0000       1.133757        30.8511 
 273   0.0000       1.136044        30.9133 
 274   0.0000       1.143591        31.1187 
 275   0.0000       1.146641        31.2017 
 276   0.0000       1.152242        31.3541 
 277   0.0000       1.156886        31.4805 
 278   0.0000       1.172837        31.9145 
 279   0.0000       1.178992        32.0820 
 280   0.0000       1.189848        32.3774 
 281   0.0000       1.231750        33.5176 
 282   0.0000       1.235486        33.6193 
 283   0.0000       1.260063        34.2881 
 284   0.0000       1.268800        34.5258 
 285   0.0000       1.283090        34.9147 
 286   0.0000       1.286870        35.0175 
 287   0.0000       1.299201        35.3531 
 288   0.0000       1.311518        35.6882 
 289   0.0000       1.330089        36.1936 
 290   0.0000       1.345432        36.6111 
 291   0.0000       1.348305        36.6892 
 292   0.0000       1.350536        36.7500 
 293   0.0000       1.386194        37.7203 
 294   0.0000       1.413605        38.4662 
 295   0.0000       1.416446        38.5435 
 296   0.0000       1.436610        39.0921 
 297   0.0000       1.442174        39.2435 
 298   0.0000       1.460800        39.7504 
 299   0.0000       1.466452        39.9042 
 300   0.0000       1.469641        39.9910 
 301   0.0000       1.472112        40.0582 
 302   0.0000       1.482956        40.3533 
 303   0.0000       1.499565        40.8052 
 304   0.0000       1.519205        41.3397 
 305   0.0000       1.539681        41.8968 
 306   0.0000       1.544192        42.0196 
 307   0.0000       1.554608        42.3030 
 308   0.0000       1.557828        42.3907 
 309   0.0000       1.560803        42.4716 
 310   0.0000       1.568539        42.6821 
 311   0.0000       1.580991        43.0210 
 312   0.0000       1.613899        43.9164 
 313   0.0000       1.616263        43.9808 
 314   0.0000       1.628549        44.3151 
 315   0.0000       1.629577        44.3430 
 316   0.0000       1.636404        44.5288 
 317   0.0000       1.655191        45.0400 
 318   0.0000       1.659118        45.1469 
 319   0.0000       1.670013        45.4434 
 320   0.0000       1.671810        45.4923 
 321   0.0000       1.674990        45.5788 
 322   0.0000       1.692341        46.0510 
 323   0.0000       1.703047        46.3423 
 324   0.0000       1.711600        46.5750 
 325   0.0000       1.720747        46.8239 
 326   0.0000       1.728238        47.0277 
 327   0.0000       1.739594        47.3368 
 328   0.0000       1.739816        47.3428 
 329   0.0000       1.751203        47.6526 
 330   0.0000       1.753894        47.7259 
 331   0.0000       1.760326        47.9009 
 332   0.0000       1.768069        48.1116 
 333   0.0000       1.784564        48.5604 
 334   0.0000       1.790877        48.7322 
 335   0.0000       1.795009        48.8447 
 336   0.0000       1.804434        49.1012 
 337   0.0000       1.812217        49.3129 
 338   0.0000       1.825508        49.6746 
 339   0.0000       1.831426        49.8356 
 340   0.0000       1.837009        49.9876 
 341   0.0000       1.840965        50.0952 
 342   0.0000       1.843709        50.1699 
 343   0.0000       1.852086        50.3978 
 344   0.0000       1.860956        50.6392 
 345   0.0000       1.862343        50.6769 
 346   0.0000       1.872662        50.9577 
 347   0.0000       1.882214        51.2177 
 348   0.0000       1.892865        51.5075 
 349   0.0000       1.915792        52.1314 
 350   0.0000       1.925340        52.3912 
 351   0.0000       1.929847        52.5138 
 352   0.0000       1.938826        52.7581 
 353   0.0000       1.945547        52.9410 
 354   0.0000       1.954423        53.1825 
 355   0.0000       1.956410        53.2366 
 356   0.0000       1.970496        53.6199 
 357   0.0000       2.000743        54.4430 
 358   0.0000       2.005610        54.5754 
 359   0.0000       2.014059        54.8053 
 360   0.0000       2.020055        54.9685 
 361   0.0000       2.036879        55.4263 
 362   0.0000       2.052376        55.8480 
 363   0.0000       2.062125        56.1133 
 364   0.0000       2.073140        56.4130 
 365   0.0000       2.074639        56.4538 
 366   0.0000       2.092643        56.9437 
 367   0.0000       2.103506        57.2393 
 368   0.0000       2.103716        57.2450 
 369   0.0000       2.146298        58.4037 
 370   0.0000       2.157594        58.7111 
 371   0.0000       2.160961        58.8027 
 372   0.0000       2.174130        59.1611 
 373   0.0000       2.185591        59.4730 
 374   0.0000       2.191362        59.6300 
 375   0.0000       2.192784        59.6687 
 376   0.0000       2.202145        59.9234 
 377   0.0000       2.202563        59.9348 
 378   0.0000       2.215094        60.2758 
 379   0.0000       2.220736        60.4293 
 380   0.0000       2.223087        60.4933 
 381   0.0000       2.226703        60.5917 
 382   0.0000       2.230829        60.7040 
 383   0.0000       2.236896        60.8690 
 384   0.0000       2.259597        61.4868 
 385   0.0000       2.263530        61.5938 
 386   0.0000       2.277424        61.9719 
 387   0.0000       2.286801        62.2270 
 388   0.0000       2.296989        62.5042 
 389   0.0000       2.301755        62.6339 
 390   0.0000       2.317774        63.0698 
 391   0.0000       2.326561        63.3089 
 392   0.0000       2.344490        63.7968 
 393   0.0000       2.351432        63.9857 
 394   0.0000       2.360459        64.2314 
 395   0.0000       2.368287        64.4444 
 396   0.0000       2.399480        65.2932 
 397   0.0000       2.401990        65.3615 
 398   0.0000       2.409583        65.5681 
 399   0.0000       2.422810        65.9280 
 400   0.0000       2.432290        66.1860 
 401   0.0000       2.443600        66.4937 
 402   0.0000       2.488009        67.7022 
 403   0.0000       2.497321        67.9556 
 404   0.0000       2.504695        68.1562 
 405   0.0000       2.514881        68.4334 
 406   0.0000       2.515871        68.4603 
 407   0.0000       2.532677        68.9176 
 408   0.0000       2.532933        68.9246 
 409   0.0000       2.539788        69.1112 
 410   0.0000       2.576804        70.1184 
 411   0.0000       2.587877        70.4197 
 412   0.0000       2.596106        70.6436 
 413   0.0000       2.597149        70.6720 
 414   0.0000       2.606016        70.9133 
 415   0.0000       2.612314        71.0847 
 416   0.0000       2.620915        71.3187 
 417   0.0000       2.634648        71.6924 
 418   0.0000       2.639819        71.8331 
 419   0.0000       2.643760        71.9404 
 420   0.0000       2.646527        72.0157 
 421   0.0000       2.668734        72.6199 
 422   0.0000       2.687507        73.1308 
 423   0.0000       2.698223        73.4224 
 424   0.0000       2.728594        74.2488 
 425   0.0000       2.736040        74.4514 
 426   0.0000       2.758910        75.0738 
 427   0.0000       2.785143        75.7876 
 428   0.0000       2.789965        75.9188 
 429   0.0000       2.799234        76.1710 
 430   0.0000       2.813938        76.5711 
 431   0.0000       2.815829        76.6226 
 432   0.0000       2.858138        77.7739 
 433   0.0000       2.865812        77.9827 
 434   0.0000       2.870966        78.1230 
 435   0.0000       2.883164        78.4549 
 436   0.0000       2.890805        78.6628 
 437   0.0000       2.907843        79.1264 
 438   0.0000       2.908621        79.1476 
 439   0.0000       2.914935        79.3194 
 440   0.0000       2.923788        79.5603 
 441   0.0000       2.929156        79.7064 
 442   0.0000       2.947137        80.1957 
 443   0.0000       2.953820        80.3775 
 444   0.0000       2.966693        80.7278 
 445   0.0000       2.992960        81.4426 
 446   0.0000       2.999724        81.6266 
 447   0.0000       3.012989        81.9876 
 448   0.0000       3.023099        82.2627 
 449   0.0000       3.047772        82.9341 
 450   0.0000       3.057088        83.1876 
 451   0.0000       3.167833        86.2011 
 452   0.0000       3.186181        86.7004 
 453   0.0000       3.300255        89.8045 
 454   0.0000       3.339726        90.8786 
 455   0.0000       3.383598        92.0724 
 456   0.0000       3.396035        92.4108 
 457   0.0000       3.404682        92.6461 
 458   0.0000       3.433726        93.4364 
 459   0.0000       3.444004        93.7161 
 460   0.0000       3.448758        93.8455 
 461   0.0000       3.467395        94.3526 
 462   0.0000       3.511867        95.5627 
 463   0.0000       3.523316        95.8743 
 464   0.0000       3.543551        96.4249 
 465   0.0000       3.551357        96.6373 
 466   0.0000       3.562131        96.9305 
 467   0.0000       3.598585        97.9225 
 468   0.0000       3.602938        98.0409 
 469   0.0000       3.799918       103.4010 
 470   0.0000       3.841025       104.5196 
 471   0.0000       3.857895       104.9786 
 472   0.0000       3.991211       108.6064 
 473   0.0000       4.212574       114.6300 
 474   0.0000       4.539204       123.5180 
 475   0.0000       4.556255       123.9820 
 476   0.0000       4.559656       124.0746 
 477   0.0000       4.587803       124.8405 
 478   0.0000       4.615823       125.6029 
 479   0.0000       4.616224       125.6138 
 480   0.0000       5.198390       141.4554 
 481   0.0000       7.004948       190.6143 
 482   0.0000       7.051618       191.8843 
 483   0.0000       7.057359       192.0405 
 484   0.0000      18.720566       509.4125 
 485   0.0000      18.769052       510.7319 
 486   0.0000      18.995240       516.8868 
 487   0.0000      19.006195       517.1849 
 488   0.0000      19.041194       518.1372 
 489   0.0000      19.049795       518.3713 
 490   0.0000      19.251454       523.8587 
 491   0.0000      19.335643       526.1496 
 492   0.0000      19.775549       538.1200 
 493   0.0000      21.665658       589.5525 
 494   0.0000      21.698112       590.4356 
 495   0.0000      22.044775       599.8688 
[...]
Total number of batches                      ...      238
Average number of points per batch           ...       58
Average number of grid points per atom       ...      437

Memory available               ... 850.0 MB
Memory needed per perturbation ...  34.9 MB
Perturbations treated per batch... 3
Number of batches              ... 1
     CP-SCF ITERATION   0:   4.2819e-02 (   5.5 sec   0/  3 done)
     CP-SCF ITERATION   1:   1.5542e-03 (   5.6 sec   0/  3 done)
     CP-SCF ITERATION   2:   3.5323e-04 (   5.6 sec   3/  3 done)
                    *** THE CP-SCF HAS CONVERGED ***

Forming final perturbed densities           ... done
Transforming perturbed density to AO basis  ... done

 Raw HFC matrix (all values in MHz): 
 -----------------------------------
                -0.2114              -0.4812              -0.1474
                -0.4818               0.4724               0.2936
                -0.1479               0.2936              -0.3476

 A(FC)          -0.0282              -0.0282              -0.0282
 A(SD)          -0.4145              -0.4349               0.8494
 A(ORB+DIA)      0.0027               0.0024              -0.0072    A(PC) =  -0.0007
 A(ORB)          0.0027               0.0025              -0.0074    A(PC) =  -0.0007
 A(DIA)         -0.0000              -0.0001               0.0002    A(PC) =   0.0000
             ----------           ----------           ----------
 A(Tot)         -0.4400              -0.4606               0.8140    A(iso)=   -0.0289
 Orientation: 
  X          -0.2727676            0.8551931            0.4407297
  Y           0.1612527            0.4922593           -0.8553820
  Z          -0.9484700           -0.1622516           -0.2721746

Notes:  (1) The A matrix conforms to the "SAI" spin Hamiltonian convention.
        (2) Tensor is right-handed.

 Raw EFG matrix (all values in a.u.**-3):
 -----------------------------------
            -0.0301       0.0022       0.1336
             0.0022      -0.1091       0.0120
             0.1336       0.0120       0.1391

 V(El)       0.4175       0.5337      -0.9512
 V(Nuc)     -0.5192      -0.6451       1.1643
         ----------   ----------   ----------
 V(Tot)     -0.1016      -0.1114       0.2130 
 Orientation: 
  X       0.7930177   -0.3732661   -0.4814513
  Y      -0.4433382   -0.8956369   -0.0358586
  Z      -0.4178208    0.2418823   -0.8757390

Note: Tensor is right-handed


 Quadrupole tensor eigenvalues (in MHz;Q= 0.0029 I=  1.0)
  e**2qQ            =     0.143052 MHz 
  e**2qQ/(4I*(2I-1))=     0.035763 MHz 
  eta               =     0.045776
  NOTE: the diagonal representation of the SH term I*Q*I = e**2qQ/(4I(2I-1))*[-(1-eta),-(1+eta),2]

 RHO(0)=      0.414161702 a.u.**-3

 -----------------------------------------------------------
 Nucleus  31H : A:ISTP=    1 I=  0.5 P=533.5514 MHz/au**3
                Q:ISTP=    2 I=  1.0 Q=  0.0029 barn     
 -----------------------------------------------------------
 Solving for nuclear perturbation:
Forming RHS of the CP-SCF equations         ... 
Calc. nucleus orbit integrals (SHARK)       ... done

------------------------------------------------------------------------------
                           ORCA CP-SCF CALCULATION
------------------------------------------------------------------------------

Input orbitals are from        ... input_65.gbw
Input Perturbation             ... input_65.pin.tmp
Wavefunction output            ... input_65.pout.tmp
Perturbation mode              ... Imaginary perturbation
Solver                         ... POPLE
Max. number of iterations      ... 64
Convergence tolerance          ... 1.000e-03
Integral handling              ... Direct
DFT GridXC                     ... 1
COSX GridX                     ... 1
COSX IntAccX                   ... 3.067
COSX Algorithm                 ... Auto
Number of perturbations        ... 3
Number of operators            ... 2
Orbital ranges used for CP-SCF:
 Operator 0:  Orbitals   0...116  to 117...516
 Operator 1:  Orbitals   0...115  to 116...516
Variables per perturbation     ... 93316
DFT calculation                         ... on
XC functional terms                     ... off
Hybrid DFT                              ... on
   Exchange mixing (SCF)                ...  0.200
   Exchange mixing (CP-SCF)             ...  0.200
   GGA exch. scaling(SCF)               ...  0.720
   GGA exch. scaling (CP-SCF)           ...  0.720
   GGA corr. scaling (SCF)              ...  0.810
   GGA corr. scaling (CP-SCF)           ...  0.810

CP-SCF GRID
-----------

General Integration Accuracy     IntAcc      ... 3.467
Radial Grid Type                 RadialGrid  ... OptM3 with GC (2021)
Angular Grid (max. ang.)         AngularGrid ... 1 (Lebedev-50)
Angular grid pruning method      GridPruning ... 4 (adaptive)
Weight generation scheme         WeightScheme... Becke
Basis function cutoff            BFCut       ... 1.0000e-10
Integration weight cutoff        WCut        ... 1.0000e-14
Angular grids for H and He will be reduced by one unit
Partially contracted basis set               ... off
Rotationally invariant grid construction     ... off

Total number of grid points                  ...    31440
Total number of batches                      ...      507
Average number of points per batch           ...       62
Average number of grid points per atom       ...      982

CP-SCF GRIDX
------------

General Integration Accuracy     IntAcc      ... 3.067
Radial Grid Type                 RadialGrid  ... OptM3 with GC (2021)
Angular Grid (max. ang.)         AngularGrid ... 1 (Lebedev-50)
Angular grid pruning method      GridPruning ... 4 (adaptive)
Weight generation scheme         WeightScheme... Becke
Basis function cutoff            BFCut       ... 1.0000e-10
Integration weight cutoff        WCut        ... 1.0000e-14
Angular grids for H and He will be reduced by one unit
Partially contracted basis set               ... on
Rotationally invariant grid construction     ... off

Total number of grid points                  ...    13987
Total number of batches                      ...      238
Average number of points per batch           ...       58
Average number of grid points per atom       ...      437

Memory available               ... 846.9 MB
Memory needed per perturbation ...  34.9 MB
Perturbations treated per batch... 3
Number of batches              ... 1
     CP-SCF ITERATION   0:   4.3748e-02 (   5.5 sec   0/  3 done)
     CP-SCF ITERATION   1:   1.1163e-03 (   5.6 sec   0/  3 done)
     CP-SCF ITERATION   2:   1.9639e-04 (   5.6 sec   3/  3 done)
                    *** THE CP-SCF HAS CONVERGED ***

Forming final perturbed densities           ... done
Transforming perturbed density to AO basis  ... done

 Raw HFC matrix (all values in MHz): 
 -----------------------------------
                -0.2220              -0.1757              -0.0838
                -0.1762               0.2654               0.2491
                -0.0843               0.2494              -0.1632

 A(FC)          -0.0396              -0.0396              -0.0396
 A(SD)          -0.2373              -0.2437               0.4810
 A(ORB+DIA)      0.0013               0.0016              -0.0039    A(PC) =  -0.0003
 A(ORB)          0.0014               0.0016              -0.0040    A(PC) =  -0.0003
 A(DIA)         -0.0001              -0.0000               0.0001    A(PC) =   0.0000
             ----------           ----------           ----------
 A(Tot)         -0.2756              -0.2817               0.4375    A(iso)=   -0.0400
 Orientation: 
  X           0.5514634            0.7846357            0.2832576
  Y           0.4900788           -0.0299462           -0.8711636
  Z          -0.6750636            0.6192334           -0.4010476

Notes:  (1) The A matrix conforms to the "SAI" spin Hamiltonian convention.
        (2) Tensor is right-handed.

 Raw EFG matrix (all values in a.u.**-3):
 -----------------------------------
            -0.0937      -0.0107      -0.0008
            -0.0107       0.1928       0.0437
            -0.0008       0.0437      -0.0991

 V(El)       0.5579       0.6851      -1.2430
 V(Nuc)     -0.6519      -0.7907       1.4426
         ----------   ----------   ----------
 V(Tot)     -0.0940      -0.1055       0.1996 
 Orientation: 
  X       0.9970390    0.0676160   -0.0366233
  Y       0.0263499    0.1470154    0.9887832
  Z       0.0722418   -0.9868204    0.1447985

Note: Tensor is right-handed


 Quadrupole tensor eigenvalues (in MHz;Q= 0.0029 I=  1.0)
  e**2qQ            =     0.133998 MHz 
  e**2qQ/(4I*(2I-1))=     0.033499 MHz 
  eta               =     0.057719
  NOTE: the diagonal representation of the SH term I*Q*I = e**2qQ/(4I(2I-1))*[-(1-eta),-(1+eta),2]

 RHO(0)=      0.408369606 a.u.**-3

 -----------------------------------------------------------
 Nucleus   0V : A:ISTP=   51 I=  3.5 P=140.5173 MHz/au**3
                Q:ISTP=   51 I=  3.5 Q= -0.0430 barn     
 -----------------------------------------------------------
 Solving for nuclear perturbation:
Forming RHS of the CP-SCF equations         ... 
Calc. nucleus orbit integrals (SHARK)       ... done

------------------------------------------------------------------------------
                           ORCA CP-SCF CALCULATION
------------------------------------------------------------------------------

Input orbitals are from        ... input_65.gbw
Input Perturbation             ... input_65.pin.tmp
Wavefunction output            ... input_65.pout.tmp
Perturbation mode              ... Imaginary perturbation
Solver                         ... POPLE
Max. number of iterations      ... 64
Convergence tolerance          ... 1.000e-03
Integral handling              ... Direct
DFT GridXC                     ... 1
COSX GridX                     ... 1
COSX IntAccX                   ... 3.067
COSX Algorithm                 ... Auto
Number of perturbations        ... 3
Number of operators            ... 2
Orbital ranges used for CP-SCF:
 Operator 0:  Orbitals   0...116  to 117...516
 Operator 1:  Orbitals   0...115  to 116...516
Variables per perturbation     ... 93316
DFT calculation                         ... on
XC functional terms                     ... off
Hybrid DFT                              ... on
   Exchange mixing (SCF)                ...  0.200
   Exchange mixing (CP-SCF)             ...  0.200
   GGA exch. scaling(SCF)               ...  0.720
   GGA exch. scaling (CP-SCF)           ...  0.720
   GGA corr. scaling (SCF)              ...  0.810
   GGA corr. scaling (CP-SCF)           ...  0.810

CP-SCF GRID
-----------

General Integration Accuracy     IntAcc      ... 3.467
Radial Grid Type                 RadialGrid  ... OptM3 with GC (2021)
Angular Grid (max. ang.)         AngularGrid ... 1 (Lebedev-50)
Angular grid pruning method      GridPruning ... 4 (adaptive)
Weight generation scheme         WeightScheme... Becke
Basis function cutoff            BFCut       ... 1.0000e-10
Integration weight cutoff        WCut        ... 1.0000e-14
Angular grids for H and He will be reduced by one unit
Partially contracted basis set               ... off
Rotationally invariant grid construction     ... off

Total number of grid points                  ...    31440
Total number of batches                      ...      507
Average number of points per batch           ...       62
Average number of grid points per atom       ...      982

CP-SCF GRIDX
------------

General Integration Accuracy     IntAcc      ... 3.067
Radial Grid Type                 RadialGrid  ... OptM3 with GC (2021)
Angular Grid (max. ang.)         AngularGrid ... 1 (Lebedev-50)
Angular grid pruning method      GridPruning ... 4 (adaptive)
Weight generation scheme         WeightScheme... Becke
Basis function cutoff            BFCut       ... 1.0000e-10
Integration weight cutoff        WCut        ... 1.0000e-14
Angular grids for H and He will be reduced by one unit
Partially contracted basis set               ... on
Rotationally invariant grid construction     ... off

Total number of grid points                  ...    13987
Total number of batches                      ...      238
Average number of points per batch           ...       58
Average number of grid points per atom       ...      437

Memory available               ... 843.7 MB
Memory needed per perturbation ...  34.9 MB
Perturbations treated per batch... 3
Number of batches              ... 1
     CP-SCF ITERATION   0:   1.0721e+01 (   5.9 sec   0/  3 done)
     CP-SCF ITERATION   1:   1.8778e+00 (   5.6 sec   0/  3 done)
     CP-SCF ITERATION   2:   3.1974e-01 (   5.7 sec   0/  3 done)
     CP-SCF ITERATION   3:   4.0784e-02 (   5.6 sec   0/  3 done)
     CP-SCF ITERATION   4:   9.0115e-03 (   5.6 sec   0/  3 done)
     CP-SCF ITERATION   5:   2.0945e-03 (   5.6 sec   0/  3 done)
     CP-SCF ITERATION   6:   3.1927e-04 (   5.6 sec   3/  3 done)
                    *** THE CP-SCF HAS CONVERGED ***

Forming final perturbed densities           ... done
Transforming perturbed density to AO basis  ... done

 Raw HFC matrix (all values in MHz): 
 -----------------------------------
              -234.6398             115.0445             -97.1025
               115.0632            -154.1903              63.1180
               -97.0651              63.0924            -140.7328

 A(FC)        -165.4254            -165.4254            -165.4254
 A(SD)         100.8786              88.3343            -189.2129
 A(ORB+DIA)     -6.5048              -7.6630             -19.1189    A(PC) = -11.0956
 A(ORB)         -6.5044              -7.6635             -19.1188    A(PC) = -11.0956
 A(DIA)         -0.0004               0.0005              -0.0001    A(PC) =  -0.0000
             ----------           ----------           ----------
 A(Tot)        -71.0516             -84.7541            -373.7572    A(iso)= -176.5210
 Orientation: 
  X           0.6609624           -0.1543527            0.7343731
  Y           0.6891693            0.5120960           -0.5126435
  Z          -0.2969417            0.8449455            0.4448514

Notes:  (1) The A matrix conforms to the "SAI" spin Hamiltonian convention.
        (2) Tensor is right-handed.

 Raw EFG matrix (all values in a.u.**-3):
 -----------------------------------
             0.1169      -0.1455       0.1391
            -0.1455      -0.0190      -0.1345
             0.1391      -0.1345      -0.0979

 V(El)       0.1384      -0.4659       0.3275
 V(Nuc)     -0.2371       0.2640      -0.0269
         ----------   ----------   ----------
 V(Tot)     -0.0987      -0.2019       0.3006 
 Orientation: 
  X       0.6615104   -0.1337328    0.7379157
  Y       0.6822283    0.5158907   -0.5180939
  Z      -0.3113977    0.8461515    0.4325033

Note: Tensor is right-handed


 Quadrupole tensor eigenvalues (in MHz;Q=-0.0430 I=  3.5)
  e**2qQ            =    -3.036740 MHz 
  e**2qQ/(4I*(2I-1))=    -0.036152 MHz 
  eta               =     0.343390
  NOTE: the diagonal representation of the SH term I*Q*I = e**2qQ/(4I(2I-1))*[-(1-eta),-(1+eta),2]

 RHO(0)=   8115.213320659 a.u.**-3


--------------------------------------------------------------------------------
----------------------------------------------------------------------------
                           ORCA EULER ANGLE PROGRAM
----------------------------------------------------------------------------

Only g-tensor available        -->  using g-tensor as reference tensor

Reference tensor               ...  g

g-tensor ordering              ...  |g_min> --> |gx>
                                    |g_mid> --> |gy>
                                    |g_max> --> |gz>

A- and EFG-tensor ordering     ...  the axes |Ax>, |Qx>, |Ay>, etc. are assigned
                                    such that the Euler rotation is minimal. You
                                    can find the respective eigenvalues as Ax,
                                    EFGx, Ay, etc. in the tables below.
                                    The relation of |Ax>, |Ay>,  etc. to Amin, Amid, etc.
                                    (as printed in the ORCA EPR/NMR CALCULATION Output)
                                    is obtained in the detailed printout.

Euler rotation around          ...  z - y - z
   First rotation              -->  by alpha around z
   Second rotation             -->  by beta around y'
   Third rotation              -->  by gamma around z''
   Positive / Negative angle   -->  clockwise / counterclockwise rotation

Plot EFG-tensors                    (-)
Plot HFC-tensors                    (-)
Detailed Printout                   (-)

-------------------------------------------------------------------------
          Euler rotation of hyperfine tensor to g-tensor
-------------------------------------------------------------------------

-------------------------------------------------------------------
 Atom  |   Alpha    Beta    Gamma   |   Ax       Ay       Az 
       |          [degrees]         |           [MHz]         
-------------------------------------------------------------------
 19H     -139.5     22.2   -177.2      -0.47     0.87    -0.50
 20H      -55.5     23.2     82.6      -0.28     0.47    -0.27
 21H      -23.4      1.3     56.6      -0.12     0.45    -0.13
 22H       -9.2      3.7     28.4      -0.22     0.45    -0.23
 23H      125.3     22.1    -98.3      -0.28     0.48    -0.26
 24H       38.1     21.9      4.8      -0.48     0.87    -0.50
 26H       43.5     24.7    -70.2      -0.28     0.44    -0.27
 27H      136.1     18.1   -178.1      -0.44     0.81    -0.46
 28H     -178.2     17.5    159.9      -0.23     0.46    -0.23
 29H     -155.7      0.9    123.6      -0.13     0.44    -0.13
 30H      -47.4     17.7      5.1      -0.44     0.81    -0.46
 31H     -136.5     26.0    109.8      -0.28     0.44    -0.28
  0V      -90.5      0.5     90.7    -373.76   -84.75   -71.05
-------------------------------------------------------------------


-------------------------------------------------------------------------------
    Euler rotation of Electric Field Gradient (EFG) tensor to g-tensor
-------------------------------------------------------------------------------

-------------------------------------------------------------------
 Atom  |   Alpha    Beta    Gamma  |   EFGx     EFGy     EFGz
       |          [degrees]        |         [a.u.**-3]       
-------------------------------------------------------------------
 19H       -3.0     30.1    -35.3     -0.14     0.28    -0.14
 20H       34.8     42.8    -59.1     -0.13    -0.14     0.28
 21H     -101.7      0.6     82.0      0.28    -0.15    -0.14
 22H     -122.2      0.7     85.7     -0.15     0.28    -0.14
 23H     -144.3     43.9    120.3     -0.13    -0.14     0.28
 24H      179.0     30.7    143.0     -0.14     0.28    -0.14
 26H      -35.1     52.4     54.6     -0.09    -0.11     0.20
 27H      -79.6     20.6     37.2      0.21    -0.10    -0.11
 28H      -63.4      0.8    104.0     -0.14     0.27    -0.14
 29H      -97.4      0.7    120.4      0.28    -0.15    -0.13
 30H      104.9     20.4   -147.1      0.21    -0.10    -0.11
 31H      146.6     51.7   -126.5     -0.09    -0.11     0.20
  0V      -95.0      1.5     96.0      0.30    -0.20    -0.10
-------------------------------------------------------------------


Maximum memory used throughout the entire EPRNMR-calculation: 244.7 MB

Timings for individual modules:

Sum of individual times         ...     2600.674 sec (=  43.345 min)
GTO integral calculation        ...        1.179 sec (=   0.020 min)   0.0 %
Spin-Orbit-Coupling Matrices    ...       11.007 sec (=   0.183 min)   0.4 %
SCF iterations                  ...      231.184 sec (=   3.853 min)   8.9 %
EPR/NMR calculation             ...     2357.304 sec (=  39.288 min)  90.6 %
                             ****ORCA TERMINATED NORMALLY****
TOTAL RUN TIME: 0 days 0 hours 43 minutes 21 seconds 651 msec
