
                                 *****************
                                 * O   R   C   A *
                                 *****************

                                            #,                                       
                                            ###                                      
                                            ####                                     
                                            #####                                    
                                            ######                                   
                                           ########,                                 
                                     ,,################,,,,,                         
                               ,,#################################,,                 
                          ,,##########################################,,             
                       ,#########################################, ''#####,          
                    ,#############################################,,   '####,        
                  ,##################################################,,,,####,       
                ,###########''''           ''''###############################       
              ,#####''   ,,,,##########,,,,          '''####'''          '####       
            ,##' ,,,,###########################,,,                        '##       
           ' ,,###''''                  '''############,,,                           
         ,,##''                                '''############,,,,        ,,,,,,###''
      ,#''                                            '''#######################'''  
     '                                                          ''''####''''         
             ,#######,   #######,   ,#######,      ##                                
            ,#'     '#,  ##    ##  ,#'     '#,    #''#        ######   ,####,        
            ##       ##  ##   ,#'  ##            #'  '#       #        #'  '#        
            ##       ##  #######   ##           ,######,      #####,   #    #        
            '#,     ,#'  ##    ##  '#,     ,#' ,#      #,         ##   #,  ,#        
             '#######'   ##     ##  '#######'  #'      '#     #####' # '####'        



                  #######################################################
                  #                        -***-                        #
                  #          Department of theory and spectroscopy      #
                  #    Directorship and core code : Frank Neese         #
                  #        Max Planck Institute fuer Kohlenforschung    #
                  #                Kaiser Wilhelm Platz 1               #
                  #                 D-45470 Muelheim/Ruhr               #
                  #                      Germany                        #
                  #                                                     #
                  #                  All rights reserved                #
                  #                        -***-                        #
                  #######################################################


                         Program Version 5.0.4 -  RELEASE  -


 With contributions from (in alphabetic order):
   Daniel Aravena         : Magnetic Suceptibility
   Michael Atanasov       : Ab Initio Ligand Field Theory (pilot matlab implementation)
   Alexander A. Auer      : GIAO ZORA, VPT2 properties, NMR spectrum
   Ute Becker             : Parallelization
   Giovanni Bistoni       : ED, misc. LED, open-shell LED, HFLD
   Martin Brehm           : Molecular dynamics
   Dmytro Bykov           : SCF Hessian
   Vijay G. Chilkuri      : MRCI spin determinant printing, contributions to CSF-ICE
   Dipayan Datta          : RHF DLPNO-CCSD density
   Achintya Kumar Dutta   : EOM-CC, STEOM-CC
   Dmitry Ganyushin       : Spin-Orbit,Spin-Spin,Magnetic field MRCI
   Miquel Garcia          : C-PCM and meta-GGA Hessian, CC/C-PCM, Gaussian charge scheme
   Yang Guo               : DLPNO-NEVPT2, F12-NEVPT2, CIM, IAO-localization
   Andreas Hansen         : Spin unrestricted coupled pair/coupled cluster methods
   Benjamin Helmich-Paris : MC-RPA, TRAH-SCF, COSX integrals
   Lee Huntington         : MR-EOM, pCC
   Robert Izsak           : Overlap fitted RIJCOSX, COSX-SCS-MP3, EOM
   Marcus Kettner         : VPT2
   Christian Kollmar      : KDIIS, OOCD, Brueckner-CCSD(T), CCSD density, CASPT2, CASPT2-K
   Simone Kossmann        : Meta GGA functionals, TD-DFT gradient, OOMP2, MP2 Hessian
   Martin Krupicka        : Initial AUTO-CI
   Lucas Lang             : DCDCAS
   Marvin Lechner         : AUTO-CI (C++ implementation), FIC-MRCC
   Dagmar Lenk            : GEPOL surface, SMD
   Dimitrios Liakos       : Extrapolation schemes; Compound Job, initial MDCI parallelization
   Dimitrios Manganas     : Further ROCIS development; embedding schemes
   Dimitrios Pantazis     : SARC Basis sets
   Anastasios Papadopoulos: AUTO-CI, single reference methods and gradients
   Taras Petrenko         : DFT Hessian,TD-DFT gradient, ASA, ECA, R-Raman, ABS, FL, XAS/XES, NRVS
   Peter Pinski           : DLPNO-MP2, DLPNO-MP2 Gradient
   Christoph Reimann      : Effective Core Potentials
   Marius Retegan         : Local ZFS, SOC
   Christoph Riplinger    : Optimizer, TS searches, QM/MM, DLPNO-CCSD(T), (RO)-DLPNO pert. Triples
   Tobias Risthaus        : Range-separated hybrids, TD-DFT gradient, RPA, STAB
   Michael Roemelt        : Original ROCIS implementation
   Masaaki Saitow         : Open-shell DLPNO-CCSD energy and density
   Barbara Sandhoefer     : DKH picture change effects
   Avijit Sen             : IP-ROCIS
   Kantharuban Sivalingam : CASSCF convergence, NEVPT2, FIC-MRCI
   Bernardo de Souza      : ESD, SOC TD-DFT
   Georgi Stoychev        : AutoAux, RI-MP2 NMR, DLPNO-MP2 response
   Willem Van den Heuvel  : Paramagnetic NMR
   Boris Wezisla          : Elementary symmetry handling
   Frank Wennmohs         : Technical directorship


 We gratefully acknowledge several colleagues who have allowed us to
 interface, adapt or use parts of their codes:
   Stefan Grimme, W. Hujo, H. Kruse, P. Pracht,  : VdW corrections, initial TS optimization,
                  C. Bannwarth, S. Ehlert          DFT functionals, gCP, sTDA/sTD-DF
   Ed Valeev, F. Pavosevic, A. Kumar             : LibInt (2-el integral package), F12 methods
   Garnet Chan, S. Sharma, J. Yang, R. Olivares  : DMRG
   Ulf Ekstrom                                   : XCFun DFT Library
   Mihaly Kallay                                 : mrcc  (arbitrary order and MRCC methods)
   Jiri Pittner, Ondrej Demel                    : Mk-CCSD
   Frank Weinhold                                : gennbo (NPA and NBO analysis)
   Christopher J. Cramer and Donald G. Truhlar   : smd solvation model
   Lars Goerigk                                  : TD-DFT with DH, B97 family of functionals
   V. Asgeirsson, H. Jonsson                     : NEB implementation
   FAccTs GmbH                                   : IRC, NEB, NEB-TS, DLPNO-Multilevel, CI-OPT
                                                   MM, QMMM, 2- and 3-layer-ONIOM, Crystal-QMMM,
                                                   LR-CPCM, SF, NACMEs, symmetry and pop. for TD-DFT,
                                                   nearIR, NL-DFT gradient (VV10), updates on ESD,
                                                   ML-optimized integration grids
   S Lehtola, MJT Oliveira, MAL Marques          : LibXC Library
   Liviu Ungur et al                             : ANISO software


 Your calculation uses the libint2 library for the computation of 2-el integrals
 For citations please refer to: http://libint.valeyev.net

 Your ORCA version has been built with support for libXC version: 5.1.0
 For citations please refer to: https://tddft.org/programs/libxc/

 This ORCA versions uses:
   CBLAS   interface :  Fast vector & matrix operations
   LAPACKE interface :  Fast linear algebra routines
   SCALAPACK package :  Parallel linear algebra routines
   Shared memory     :  Shared parallel matrices
   BLAS/LAPACK       :  OpenBLAS 0.3.15  USE64BITINT DYNAMIC_ARCH NO_AFFINITY Prescott SINGLE_THREADED
        Core in use  :  Prescott
   Copyright (c) 2011-2014, The OpenBLAS Project


================================================================================

----- Orbital basis set information -----
Your calculation utilizes the basis: TZVP 

The basis set includes element-specific modifications.

Your calculation utilizes the basis: CP(PPP) 

----- AuxJ basis set information -----
Your calculation utilizes the auxiliary basis: def2/J
   F. Weigend, Phys. Chem. Chem. Phys. 8, 1057 (2006).

================================================================================
                                        WARNINGS
                       Please study these warnings very carefully!
================================================================================


WARNING: your system is open-shell and RHF/RKS was chosen
  ===> : WILL SWITCH to UHF/UKS


INFO   : the flag for use of the SHARK integral package has been found!

================================================================================
                                       INPUT FILE
================================================================================
NAME = input_9.inp
|  1> ! nofrozencore ReducedPop printbasis
|  2> ! B3LYP TZVP
|  3> 
|  4> %basis
|  5> newgto V "CP(PPP)" end
|  6> end
|  7> 
|  8> %pal
|  9> nprocs 8
| 10> end
| 11> 
| 12> % sym SymThresh 1e-2 end
| 13> * xyz -2 2 
| 14> V -0.03951621073256472 1.0712906858397748 -0.30781840474423344
| 15> S -0.4145293007094005 -0.26893704112043504 -2.288411740842054
| 16> S -2.320661481581297 0.38145534009642273 0.37470435133692065
| 17> S 2.296966308638686 0.2820972219504945 -0.5637744496211069
| 18> S 0.386406604246179 1.0230978934580608 2.0749244742521626
| 19> O -0.09592209748816515 2.603299645807835 -0.7539194557572261
| 20> C -2.3512113806388215 0.7116790445612471 2.114037555414018
| 21> C -1.2174029769103119 0.9870414450771342 2.8119114639431575
| 22> C 1.202279736859051 -0.5689511075390722 -2.930524663447519
| 23> C 2.338807500341198 -0.35296381926772274 -2.2161230861330106
| 24> S -3.9826728694619233 0.6653006312037322 2.895974402183977
| 25> S -1.2069168376236745 1.2794311184863465 4.587077164906455
| 26> S 3.9845759513663412 -0.6935087238151323 -2.8877291878452382
| 27> S 1.2061959533891162 -1.2579090713082386 -4.592810713038603
| 28> C -1.671361149799089 -0.3799515362165468 5.24738888535755
| 29> C 4.029988596458039 -2.5353806233486513 -3.054973876925524
| 30> C -3.907233422810852 -0.8078760733234595 4.012895353246488
| 31> C 1.79423224736355 -2.9791238622030036 -4.28612940758797
| 32> C -3.176614433768982 -0.6356745490250727 5.348176004767638
| 33> H -3.4722295873140645 -1.6309956791076223 3.4338455745799155
| 34> H -4.96078183853628 -1.0540176702976514 4.204202746920743
| 35> H -3.3301733611715463 -1.5586757529166935 5.9306036056646025
| 36> H -3.6411985763133363 0.1800084046401919 5.916156439585809
| 37> H -1.2193543243630542 -0.4357548387142192 6.24689748797115
| 38> H -1.1788821540312597 -1.125238806553001 4.612746619441587
| 39> C 3.314973753290741 -3.1456031464426553 -4.264349184578294
| 40> H 1.3683491306225823 -3.583759866656232 -5.09838691488774
| 41> H 1.3386600981319485 -3.3098715691658196 -3.3458699063983572
| 42> H 3.734056766370826 -2.724076625044113 -5.18665272557191
| 43> H 3.542655567809919 -4.223891851001127 -4.273590667947698
| 44> H 3.6417812720949962 -2.954796132572869 -2.1191126772900883
| 45> H 5.101353100638719 -2.773559077047556 -3.108534621471157
| 46> * 
| 47> 
| 48> % eprnmr
| 49> gtensor true
| 50> Nuclei = all H {aiso,adip,aorb,fgrad,rho}
| 51> Nuclei = all V {aiso,adip,aorb,fgrad,rho}
| 52> end
| 53> 
| 54>                          ****END OF INPUT****
================================================================================

------------------------------------------------------------------------------
                            SYMMETRY HANDLING SETUP
------------------------------------------------------------------------------

------------------
SYMMETRY DETECTION
------------------
The point group will now be determined using a tolerance of 1.0000e-02.
Splitting atom subsets according to nuclear charge, mass and basis set.
Splitting atom subsets according to distance from the molecule's center.
Identifying relative distance patterns of the atoms.
Splitting atom subsets according to atoms' relative distance patterns.
Bring atoms of each subset into input order.
The molecule is neither linear nor planar.
There is at least one atom subset not centered around the molecule's center.
The molecule does not have a center of inversion.
Analyzing the first atom subset for its symmetry.
The subset is an off-center atom pair.
Testing point group C2v.
Test failed.
Testing point group C2.
Test failed.
Testing point group Cs.
Test failed.
Testing point group Cs.
Test failed.
No testing is needed for point group C1.
This point group has been found:    C1
Largest non-degenerate subgroup:    C1


Mass-centered symmetry-perfected Cartesians (point group C1):

Atom          Symmetry-perfected Cartesians (x, y, z; au)
  0      -0.074849260398    2.026624862098   -0.582192783135
  1      -0.783521297089   -0.506038498945   -4.324971771029
  2      -4.385589093991    0.723024981144    0.707588306028
  3       4.340462817908    0.535265348667   -1.065879610274
  4       0.730028214101    1.935553682868    3.920538705719
  5      -0.181440938707    4.921702231151   -1.425201597604
  6      -4.443320036629    1.347057345512    3.994451717369
  7      -2.300732665244    1.867416870066    5.313242280498
  8       2.271804994764   -1.072982920800   -5.538389341805
  9       4.419531211343   -0.664826097559   -4.188366011040
 10      -7.526335448544    1.259414845740    5.472098211786
 11      -2.280916733790    2.419953277196    8.667819297649
 12       7.529582863628   -1.308362703456   -5.457517613146
 13       2.279205571487   -2.374924790108   -8.679654731770
 14      -3.158589288259   -0.715825491572    9.915627612320
 15       7.615400325869   -4.788996167339   -5.773564272861
 16      -7.383775554679   -1.524485672689    7.582772922533
 17       3.390433123904   -5.627549362553   -8.100111054075
 18      -6.003105757148   -1.199071951921   10.106087665832
 19      -6.561737438385   -3.079956303082    6.488527422946
 20      -9.374693529227   -1.989625881136    7.944291503972
 21      -6.293290075357   -2.943291448556   11.206716324364
 22      -6.881042552719    0.342345442614   11.179415137064
 23      -2.304420177522   -0.821278450661   11.804425139758
 24      -2.227938859549   -2.124214323605    8.716327536728
 25       6.264218090594   -5.942149616737   -8.058952397451
 26       2.585630668203   -6.770145821678   -9.635055293093
 27       2.529526527615   -6.252571948135   -6.323278102009
 28       7.056170212694   -5.145579933110   -9.801853502275
 29       6.694474365709   -7.979819961654   -8.076416270090
 30       6.881794799640   -5.581576616092   -4.005042906187
 31       9.639985828374   -5.239088215831   -5.874779411581


------------------
SYMMETRY REDUCTION
------------------
ORCA supports only abelian point groups.
It is now checked, if the determined point group is supported:
Point Group ( C1    ) is          ... supported

The point group is C1 - hence turning off symmetry
If this is a round-off problem, please increase the symmetry
        detection tolerance (%method SymThresh)

Storing the symmetry object:
Symmetry file                     ... input_9.sym.tmp
Writing symmetry information      ... done

                       ****************************
                       * Single Point Calculation *
                       ****************************

---------------------------------
CARTESIAN COORDINATES (ANGSTROEM)
---------------------------------
  V     -0.039609    1.072444   -0.308083
  S     -0.414622   -0.267784   -2.288676
  S     -2.320754    0.382608    0.374440
  S      2.296874    0.283250   -0.564039
  S      0.386314    1.024251    2.074660
  O     -0.096014    2.604453   -0.754184
  C     -2.351304    0.712832    2.113773
  C     -1.217495    0.988194    2.811647
  C      1.202187   -0.567798   -2.930789
  C      2.338715   -0.351811   -2.216388
  S     -3.982765    0.666454    2.895710
  S     -1.207009    1.280584    4.586812
  S      3.984484   -0.692356   -2.887994
  S      1.206104   -1.256756   -4.593075
  C     -1.671453   -0.378799    5.247124
  C      4.029896   -2.534228   -3.055239
  C     -3.907326   -0.806723    4.012631
  C      1.794140   -2.977971   -4.286394
  C     -3.176707   -0.634522    5.347911
  H     -3.472322   -1.629843    3.433581
  H     -4.960874   -1.052865    4.203938
  H     -3.330266   -1.557523    5.930339
  H     -3.641291    0.181161    5.915892
  H     -1.219447   -0.434602    6.246633
  H     -1.178974   -1.124086    4.612482
  C      3.314881   -3.144450   -4.264614
  H      1.368257   -3.582607   -5.098652
  H      1.338568   -3.308719   -3.346135
  H      3.733964   -2.722924   -5.186917
  H      3.542563   -4.222739   -4.273855
  H      3.641689   -2.953643   -2.119377
  H      5.101261   -2.772406   -3.108799

----------------------------
CARTESIAN COORDINATES (A.U.)
----------------------------
  NO LB      ZA    FRAG     MASS         X           Y           Z
   0 V    23.0000    0    50.940   -0.074849    2.026625   -0.582193
   1 S    16.0000    0    32.060   -0.783521   -0.506038   -4.324972
   2 S    16.0000    0    32.060   -4.385589    0.723025    0.707588
   3 S    16.0000    0    32.060    4.340463    0.535265   -1.065880
   4 S    16.0000    0    32.060    0.730028    1.935554    3.920539
   5 O     8.0000    0    15.999   -0.181441    4.921702   -1.425202
   6 C     6.0000    0    12.011   -4.443320    1.347057    3.994452
   7 C     6.0000    0    12.011   -2.300733    1.867417    5.313242
   8 C     6.0000    0    12.011    2.271805   -1.072983   -5.538389
   9 C     6.0000    0    12.011    4.419531   -0.664826   -4.188366
  10 S    16.0000    0    32.060   -7.526335    1.259415    5.472098
  11 S    16.0000    0    32.060   -2.280917    2.419953    8.667819
  12 S    16.0000    0    32.060    7.529583   -1.308363   -5.457518
  13 S    16.0000    0    32.060    2.279206   -2.374925   -8.679655
  14 C     6.0000    0    12.011   -3.158589   -0.715825    9.915628
  15 C     6.0000    0    12.011    7.615400   -4.788996   -5.773564
  16 C     6.0000    0    12.011   -7.383776   -1.524486    7.582773
  17 C     6.0000    0    12.011    3.390433   -5.627549   -8.100111
  18 C     6.0000    0    12.011   -6.003106   -1.199072   10.106088
  19 H     1.0000    0     1.008   -6.561737   -3.079956    6.488527
  20 H     1.0000    0     1.008   -9.374694   -1.989626    7.944292
  21 H     1.0000    0     1.008   -6.293290   -2.943291   11.206716
  22 H     1.0000    0     1.008   -6.881043    0.342345   11.179415
  23 H     1.0000    0     1.008   -2.304420   -0.821278   11.804425
  24 H     1.0000    0     1.008   -2.227939   -2.124214    8.716328
  25 C     6.0000    0    12.011    6.264218   -5.942150   -8.058952
  26 H     1.0000    0     1.008    2.585631   -6.770146   -9.635055
  27 H     1.0000    0     1.008    2.529527   -6.252572   -6.323278
  28 H     1.0000    0     1.008    7.056170   -5.145580   -9.801854
  29 H     1.0000    0     1.008    6.694474   -7.979820   -8.076416
  30 H     1.0000    0     1.008    6.881795   -5.581577   -4.005043
  31 H     1.0000    0     1.008    9.639986   -5.239088   -5.874779

--------------------------------
INTERNAL COORDINATES (ANGSTROEM)
--------------------------------
 V      0   0   0     0.000000000000     0.00000000     0.00000000
 S      1   0   0     2.420660063033     0.00000000     0.00000000
 S      1   2   0     2.478978391096    85.90807460     0.00000000
 S      1   2   3     2.479413314412    83.41344866   145.35555553
 S      1   2   3     2.420990792416   145.23637961    72.26511860
 O      1   2   3     1.596633716667   107.28783959   252.25802561
 C      3   1   2     1.770666819627   103.55810250   161.77953720
 C      7   3   1     1.359549167992   121.84435572   347.46548347
 C      2   1   3     1.765329688582   104.46659250   198.95414684
 C      9   2   1     1.359674769763   123.19203418    14.60917417
 S      7   3   1     1.809763183147   115.79765231   167.23141395
 S      8   7   3     1.799115045268   122.97389209   181.84426617
 S     10   9   2     1.809856177231   122.35976651   178.99525022
 S      9   2   1     1.799409159490   113.77087119   191.99289325
 C     12   8   7     1.845337606512   101.85614876    67.04780550
 C     13  10   9     1.850006807731   104.07562281   292.63294990
 C     11   7   3     1.850257583094   104.15040937   112.73474118
 C     14   9   2     1.844565114746   101.79306986   249.91132833
 C     15  12   8     1.530143702932   114.92571813   273.52004957
 H     17  11   7     1.096381716601   107.16435439   313.58813373
 H     17  11   7     1.098703084966   104.14548935   199.62132445
 H     19  15  12     1.102149480269   108.16933968   191.00016654
 H     19  15  12     1.097168574441   109.05057203   306.86669339
 H     15  12   8     1.098381366152   105.52913068   152.58006090
 H     15  12   8     1.095791714828   106.93244223    37.85672500
 C     18  14   9     1.529981848927   114.88322950   273.57173314
 H     18  14   9     1.098509619972   105.49036767   152.71621509
 H     18  14   9     1.095914211238   106.96235838    38.02542008
 H     26  18  14     1.097250655878   109.01798779   306.78585919
 H     26  18  14     1.102102964362   108.16059688   190.95036882
 H     16  13  10     1.096563031043   107.15490156   313.53484564
 H     16  13  10     1.098826478558   104.13127049   199.60251775

---------------------------
INTERNAL COORDINATES (A.U.)
---------------------------
 V      0   0   0     0.000000000000     0.00000000     0.00000000
 S      1   0   0     4.574384582453     0.00000000     0.00000000
 S      1   2   0     4.684590251080    85.90807460     0.00000000
 S      1   2   3     4.685412137036    83.41344866   145.35555553
 S      1   2   3     4.575009570412   145.23637961    72.26511860
 O      1   2   3     3.017200460686   107.28783959   252.25802561
 C      3   1   2     3.346075363516   103.55810250   161.77953720
 C      7   3   1     2.569175593106   121.84435572   347.46548347
 C      2   1   3     3.335989647500   104.46659250   198.95414684
 C      9   2   1     2.569412946054   123.19203418    14.60917417
 S      7   3   1     3.419956783402   115.79765231   167.23141395
 S      8   7   3     3.399834718974   122.97389209   181.84426617
 S     10   9   2     3.420132516752   122.35976651   178.99525022
 S      9   2   1     3.400390514306   113.77087119   191.99289325
 C     12   8   7     3.487182700933   101.85614876    67.04780550
 C     13  10   9     3.496006212501   104.07562281   292.63294990
 C     11   7   3     3.496480109258   104.15040937   112.73474118
 C     14   9   2     3.485722903056   101.79306986   249.91132833
 C     15  12   8     2.891552544085   114.92571813   273.52004957
 H     17  11   7     2.071861182614   107.16435439   313.58813373
 H     17  11   7     2.076247933079   104.14548935   199.62132445
 H     19  15  12     2.082760676352   108.16933968   191.00016654
 H     19  15  12     2.073348128438   109.05057203   306.86669339
 H     15  12   8     2.075639972629   105.52913068   152.58006090
 H     15  12   8     2.070746240844   106.93244223    37.85672500
 C     18  14   9     2.891246684342   114.88322950   273.57173314
 H     18  14   9     2.075882337225   105.49036767   152.71621509
 H     18  14   9     2.070977725513   106.96235838    38.02542008
 H     26  18  14     2.073503239874   109.01798779   306.78585919
 H     26  18  14     2.082672774027   108.16059688   190.95036882
 H     16  13  10     2.072203817254   107.15490156   313.53484564
 H     16  13  10     2.076481113176   104.13127049   199.60251775

---------------------
BASIS SET INFORMATION
---------------------
There are 5 groups of distinct atoms

 Group   1 Type V   : 17s11p5d1f contracted to 17s7p3d1f pattern {11111111111111111/3311111/311/1}
 Group   2 Type S   : 14s9p1d contracted to 5s4p1d pattern {73211/6111/1}
 Group   3 Type O   : 11s6p1d contracted to 5s3p1d pattern {62111/411/1}
 Group   4 Type C   : 11s6p1d contracted to 5s3p1d pattern {62111/411/1}
 Group   5 Type H   : 5s1p contracted to 3s1p pattern {311/1}

Atom   0V    basis set group =>   1
Atom   1S    basis set group =>   2
Atom   2S    basis set group =>   2
Atom   3S    basis set group =>   2
Atom   4S    basis set group =>   2
Atom   5O    basis set group =>   3
Atom   6C    basis set group =>   4
Atom   7C    basis set group =>   4
Atom   8C    basis set group =>   4
Atom   9C    basis set group =>   4
Atom  10S    basis set group =>   2
Atom  11S    basis set group =>   2
Atom  12S    basis set group =>   2
Atom  13S    basis set group =>   2
Atom  14C    basis set group =>   4
Atom  15C    basis set group =>   4
Atom  16C    basis set group =>   4
Atom  17C    basis set group =>   4
Atom  18C    basis set group =>   4
Atom  19H    basis set group =>   5
Atom  20H    basis set group =>   5
Atom  21H    basis set group =>   5
Atom  22H    basis set group =>   5
Atom  23H    basis set group =>   5
Atom  24H    basis set group =>   5
Atom  25C    basis set group =>   4
Atom  26H    basis set group =>   5
Atom  27H    basis set group =>   5
Atom  28H    basis set group =>   5
Atom  29H    basis set group =>   5
Atom  30H    basis set group =>   5
Atom  31H    basis set group =>   5

-------------------------
BASIS SET IN INPUT FORMAT
-------------------------

 # Basis set for element : H 
 NewGTO H 
 S 3 
   1      34.0613410000      0.0254393168
   2       5.1235746000      0.1900859340
   3       1.1646626000      0.8524411390
 S 1 
   1       0.3272304100      1.0000000000
 S 1 
   1       0.1030724100      1.0000000000
 P 1 
   1       0.8000000000      1.0000000000
  end;

 # Basis set for element : C 
 NewGTO C 
 S 6 
   1   13575.3496820000      0.0006064601
   2    2035.2333680000      0.0046978985
   3     463.2256235900      0.0243324735
   4     131.2001959800      0.0973999560
   5      42.8530158900      0.3019558443
   6      15.5841857700      0.6623361013
 S 2 
   1       6.2067138500      0.6559530795
   2       2.5764896500      0.3758563390
 S 1 
   1       0.5769633900      1.0000000000
 S 1 
   1       0.2297283100      1.0000000000
 S 1 
   1       0.0951644400      1.0000000000
 P 4 
   1      34.6972322400      0.0113272290
   2       7.9582622800      0.0761696612
   3       2.3780826900      0.3019225154
   4       0.8143320800      0.7278502776
 P 1 
   1       0.2888754700      1.0000000000
 P 1 
   1       0.1005682400      1.0000000000
 D 1 
   1       0.8000000000      1.0000000000
  end;

 # Basis set for element : O 
 NewGTO O 
 S 6 
   1   27032.3826310000      0.0005722654
   2    4052.3871392000      0.0044353333
   3     922.3272271000      0.0230201034
   4     261.2407098900      0.0928224938
   5      85.3546413500      0.2937849971
   6      31.0350352400      0.6740160462
 S 2 
   1      12.2608607300      0.6383993750
   2       4.9987076000      0.3953458663
 S 1 
   1       1.1703108200      1.0000000000
 S 1 
   1       0.4647474100      1.0000000000
 S 1 
   1       0.1850453600      1.0000000000
 P 4 
   1      63.2749548000      0.0120183316
   2      14.6270493800      0.0830054304
   3       4.4501223500      0.3199174388
   4       1.5275799600      0.7071554258
 P 1 
   1       0.5293511800      1.0000000000
 P 1 
   1       0.1747842100      1.0000000000
 D 1 
   1       1.2000000000      1.0000000000
  end;

 # Basis set for element : S 
 NewGTO S 
 S 7 
   1   60700.9281040000      0.0005238013
   2    9102.6106854000      0.0040506304
   3    2071.4166009000      0.0208270003
   4     586.0247682100      0.0814968475
   5     190.5539502100      0.2374911358
   6      67.6303842600      0.4472617145
   7      25.1273069100      0.3489191913
 S 3 
   1     112.5746301000      0.1004556993
   2      34.7955542200      0.4339117282
   3       6.5115556200     -1.2084330582
 S 2 
   1       3.2399032300      0.6749812922
   2       1.5477160900      0.3470879597
 S 1 
   1       0.4054103000      1.0000000000
 S 1 
   1       0.1455065100      1.0000000000
 P 6 
   1     564.3671602700      0.0025564845
   2     133.4262437900      0.0202874255
   3      42.4682711900      0.0927670112
   4      15.6165275800      0.2650208365
   5       6.1093988500      0.4486298663
   6       2.4404160200      0.3596369916
 P 1 
   1       0.8388220100      1.0000000000
 P 1 
   1       0.3128874700      1.0000000000
 P 1 
   1       0.1077010900      1.0000000000
 D 1 
   1       0.5500000000      1.0000000000
  end;

 # Basis set for element : V 
 NewGTO V 
 S 1 
   1  4239814.9912500000      1.0000000000
 S 1 
   1  1695925.9965000001      1.0000000000
 S 1 
   1  678370.3986000001      1.0000000000
 S 1 
   1  271348.1594400000      1.0000000000
 S 1 
   1   40672.0050780000      1.0000000000
 S 1 
   1    9257.0761385000      1.0000000000
 S 1 
   1    2622.7328773000      1.0000000000
 S 1 
   1     858.5948018500      1.0000000000
 S 1 
   1     314.1941865000      1.0000000000
 S 1 
   1     124.4786212700      1.0000000000
 S 1 
   1      50.4693993090      1.0000000000
 S 1 
   1      12.5138469110      1.0000000000
 S 1 
   1       5.3447758082      1.0000000000
 S 1 
   1       1.5755631295      1.0000000000
 S 1 
   1       0.6306903307      1.0000000000
 S 1 
   1       0.0879544416      1.0000000000
 S 1 
   1       0.0342969197      1.0000000000
 P 3 
   1    1450.0319327000     -0.0222847647
   2     343.7504988400     -0.1817959329
   3     110.8252170800     -0.8607412073
 P 3 
   1      41.8224645460     -0.2522537814
   2      17.0880737100     -0.4620379520
   3       7.2613218939     -0.3990010670
 P 1 
   1       2.9458145262      1.0000000000
 P 1 
   1       1.1650209680      1.0000000000
 P 1 
   1       0.4339937839      1.0000000000
 D 3 
   1      27.3603358640      0.0575501019
   2       7.4542765527      0.3023798347
   3       2.4632270217      0.7724212088
 D 1 
   1       0.8249954244      1.0000000000
 D 1 
   1       0.2526297057      1.0000000000
 P 1 
   1       0.1112480000      1.0000000000
 P 1 
   1       0.0363780000      1.0000000000
 F 1 
   1       1.8000000000      1.0000000000
  end;

---------------------------------
AUXILIARY/J BASIS SET INFORMATION
---------------------------------
There are 5 groups of distinct atoms

 Group   1 Type V   : 19s5p5d3f3g contracted to 8s5p5d2f3g pattern {121111111/11111/11111/21/111}
 Group   2 Type S   : 14s5p5d2f1g contracted to 8s4p3d1f1g pattern {71111111/2111/311/2/1}
 Group   3 Type O   : 12s5p4d2f1g contracted to 6s4p3d1f1g pattern {711111/2111/211/2/1}
 Group   4 Type C   : 12s5p4d2f1g contracted to 6s4p3d1f1g pattern {711111/2111/211/2/1}
 Group   5 Type H   : 5s2p1d contracted to 3s1p1d pattern {311/2/1}

Atom   0V    basis set group =>   1
Atom   1S    basis set group =>   2
Atom   2S    basis set group =>   2
Atom   3S    basis set group =>   2
Atom   4S    basis set group =>   2
Atom   5O    basis set group =>   3
Atom   6C    basis set group =>   4
Atom   7C    basis set group =>   4
Atom   8C    basis set group =>   4
Atom   9C    basis set group =>   4
Atom  10S    basis set group =>   2
Atom  11S    basis set group =>   2
Atom  12S    basis set group =>   2
Atom  13S    basis set group =>   2
Atom  14C    basis set group =>   4
Atom  15C    basis set group =>   4
Atom  16C    basis set group =>   4
Atom  17C    basis set group =>   4
Atom  18C    basis set group =>   4
Atom  19H    basis set group =>   5
Atom  20H    basis set group =>   5
Atom  21H    basis set group =>   5
Atom  22H    basis set group =>   5
Atom  23H    basis set group =>   5
Atom  24H    basis set group =>   5
Atom  25C    basis set group =>   4
Atom  26H    basis set group =>   5
Atom  27H    basis set group =>   5
Atom  28H    basis set group =>   5
Atom  29H    basis set group =>   5
Atom  30H    basis set group =>   5
Atom  31H    basis set group =>   5

-------------------------------------
AUXILIARY/J BASIS SET IN INPUT FORMAT
-------------------------------------

 # Auxiliary/J basis set for element : H 
 NewAuxJGTO H 
 S 3 
   1      15.6752927000      0.1007184237
   2       3.6063578000      0.3404257499
   3       1.2080016000      0.6491996172
 S 1 
   1       0.4726794000      1.0000000000
 S 1 
   1       0.2018100000      1.0000000000
 P 2 
   1       2.0281365000      0.5596620919
   2       0.5358730000      0.5596620919
 D 1 
   1       2.2165124000      1.0000000000
  end;

 # Auxiliary/J basis set for element : C 
 NewAuxJGTO C 
 S 7 
   1    1861.0916331000      0.0134602335
   2     642.9939764000      0.0299160374
   3     235.1105725000      0.1008649584
   4      90.7028894000      0.2370970548
   5      36.7794552000      0.3924037254
   6      15.6046273000      0.3195862154
   7       6.8907294000      0.0530104441
 S 1 
   1       3.1478850000     -1.0000000000
 S 1 
   1       1.4777287000      1.0000000000
 S 1 
   1       0.7076466000      1.0000000000
 S 1 
   1       0.3430122000      1.0000000000
 S 1 
   1       0.1669453000      1.0000000000
 P 2 
   1      13.5472892000     -0.6769313712
   2       5.4669419000     -0.3779500978
 P 1 
   1       2.1751721000      1.0000000000
 P 1 
   1       0.8582194000      1.0000000000
 P 1 
   1       0.3376720000      1.0000000000
 D 2 
   1       5.9287253000     -0.3533329857
   2       1.9809209000     -0.7456525731
 D 1 
   1       0.8055417000     -1.0000000000
 D 1 
   1       0.3531244000     -1.0000000000
 F 2 
   1       1.6755626000      0.6311076882
   2       0.5997536000      0.4968166032
 G 1 
   1       1.0024600000     -1.0000000000
  end;

 # Auxiliary/J basis set for element : O 
 NewAuxJGTO O 
 S 7 
   1    2876.8216605000      0.0168151159
   2    1004.7443032000      0.0340137548
   3     369.7579954000      0.1194951309
   4     142.9442404000      0.2664627624
   5      57.8366425000      0.4202764046
   6      24.3864983000      0.2765077335
   7      10.6622662000      0.0057008815
 S 1 
   1       4.8070437000     -1.0000000000
 S 1 
   1       2.2210770000      1.0000000000
 S 1 
   1       1.0447795000      1.0000000000
 S 1 
   1       0.4968425000      1.0000000000
 S 1 
   1       0.2371384000      1.0000000000
 P 2 
   1      64.2613382000     -0.2731534179
   2      16.3006076000     -0.8168011598
 P 1 
   1       4.3550542000      1.0000000000
 P 1 
   1       1.2019554000      1.0000000000
 P 1 
   1       0.3354196000      1.0000000000
 D 2 
   1       9.2146611000     -0.4661230638
   2       2.8435251000     -0.6600908911
 D 1 
   1       0.9955759000     -1.0000000000
 D 1 
   1       0.3649441000     -1.0000000000
 F 2 
   1       2.6420115000      0.5931563945
   2       0.7345613000      0.5931563945
 G 1 
   1       1.3931000000     -1.0000000000
  end;

 # Auxiliary/J basis set for element : S 
 NewAuxJGTO S 
 S 7 
   1    7399.0303145000      0.0295137551
   2    2710.1675859000      0.0559686311
   3    1034.3279062000      0.1764696370
   4     410.4645411000      0.3577969368
   5     168.9762502000      0.4299293578
   6      71.9687889000      0.1259148089
   7      31.6172683000     -0.0646025788
 S 1 
   1      14.2796836000      1.0000000000
 S 1 
   1       6.6060948000      1.0000000000
 S 1 
   1       3.1181477000      1.0000000000
 S 1 
   1       1.4954039000     -1.0000000000
 S 1 
   1       0.7254779000      1.0000000000
 S 1 
   1       0.3544216000      1.0000000000
 S 1 
   1       0.1735525000      1.0000000000
 P 2 
   1      12.6998799000      1.4059102813
   2       4.4295784000     -1.2124994202
 P 1 
   1       1.5232889000      1.0000000000
 P 1 
   1       0.5194667000     -1.0000000000
 P 1 
   1       0.1766547000     -1.0000000000
 D 3 
   1      16.8546461000      1.0295742104
   2       5.0810461000     -0.7461553923
   3       1.5102323000      0.8357028005
 D 1 
   1       0.4451331000      1.0000000000
 D 1 
   1       0.1308362000      1.0000000000
 F 2 
   1       1.0809860000      0.5572698934
   2       0.4161474000      0.5572698934
 G 1 
   1       0.6707100000     -1.0000000000
  end;

 # Auxiliary/J basis set for element : V 
 NewAuxJGTO V 
 S 12 
   1   11942.0842430000      0.0459866720
   2    2430.7110193000      0.1744615821
   3     841.0764301000      0.2900402792
   4     494.7508273000      0.1411212903
   5     291.0298903000      0.2660697186
   6     171.1940483000      0.0446365706
   7      59.2366916000     -0.0408204801
   8      34.8451117000      0.1394665381
   9      20.4971240000      0.2164746715
  10      12.0571314000      0.0864266611
  11       7.0924300000     -0.0568501658
  12       4.1720176000     -0.0126212852
 S 1 
   1       2.4541279000      1.0000000000
 S 1 
   1       1.4436046000      1.0000000000
 S 1 
   1       0.8491792000      1.0000000000
 S 1 
   1       0.2938336000      1.0000000000
 S 1 
   1       0.1728433000      1.0000000000
 S 1 
   1       0.1016725000      1.0000000000
 S 1 
   1       0.0598074000      1.0000000000
 P 1 
   1      16.7130979000     -1.0000000000
 P 1 
   1       4.7454037000     -1.0000000000
 P 1 
   1       1.3889998000      1.0000000000
 P 1 
   1       0.4142440000     -1.0000000000
 P 1 
   1       0.1243234000      1.0000000000
 D 1 
   1       7.7143225000      1.0000000000
 D 1 
   1       3.1170731000      1.0000000000
 D 1 
   1       1.2767950000     -1.0000000000
 D 1 
   1       0.5273386000      1.0000000000
 D 1 
   1       0.2184050000      1.0000000000
 F 2 
   1       3.1309344000     -1.0825667766
   2       1.0419780000      0.1809223232
 F 1 
   1       0.3559044000      1.0000000000
 G 1 
   1       8.7130110000      1.0000000000
 G 1 
   1       2.7493872000      1.0000000000
 G 1 
   1       0.8775089000      1.0000000000
  end;



           ************************************************************
           *        Program running with 8 parallel MPI-processes     *
           *              working on a common directory               *
           ************************************************************
------------------------------------------------------------------------------
                           ORCA GTO INTEGRAL CALCULATION
                           -- RI-GTO INTEGRALS CHOSEN --
------------------------------------------------------------------------------
------------------------------------------------------------------------------
                   ___                                                        
                  /   \      - P O W E R E D   B Y -                         
                 /     \                                                     
                 |  |  |   _    _      __       _____    __    __             
                 |  |  |  | |  | |    /  \     |  _  \  |  |  /  |          
                  \  \/   | |  | |   /    \    | | | |  |  | /  /          
                 / \  \   | |__| |  /  /\  \   | |_| |  |  |/  /          
                |  |  |   |  __  | /  /__\  \  |    /   |      \           
                |  |  |   | |  | | |   __   |  |    \   |  |\   \          
                \     /   | |  | | |  |  |  |  | |\  \  |  | \   \       
                 \___/    |_|  |_| |__|  |__|  |_| \__\ |__|  \__/        
                                                                              
                      - O R C A' S   B I G   F R I E N D -                    
                                      &                                       
                       - I N T E G R A L  F E E D E R -                       
                                                                              
 v1 FN, 2020, v2 2021                                                         
------------------------------------------------------------------------------


Reading SHARK input file input_9.SHARKINP.tmp ... ok
----------------------
SHARK INTEGRAL PACKAGE
----------------------

Number of atoms                             ...     32
Number of basis functions                   ...    517
Number of shells                            ...    255
Maximum angular momentum                    ...      3
Integral batch strategy                     ... SHARK/LIBINT Hybrid
RI-J (if used) integral strategy            ... SPLIT-RIJ (Revised 2003 algorithm where possible)
Printlevel                                  ...      1
Contraction scheme used                     ... SEGMENTED contraction
Coulomb Range Separation                    ... NOT USED
Exchange Range Separation                   ... NOT USED
Finite Nucleus Model                        ... NOT USED
Auxiliary Coulomb fitting basis             ... AVAILABLE
   # of basis functions in Aux-J            ...   1168
   # of shells in Aux-J                     ...    384
   Maximum angular momentum in Aux-J        ...      4
Auxiliary J/K fitting basis                 ... NOT available
Auxiliary Correlation fitting basis         ... NOT available
Auxiliary 'external' fitting basis          ... NOT available
Integral threshold                          ...     1.000000e-10
Primitive cut-off                           ...     1.000000e-11
Primitive pair pre-selection threshold      ...     1.000000e-11

Calculating pre-screening integrals         ... done (  0.1 sec) Dimension = 255
Organizing shell pair data                  ... done (  0.1 sec)
Shell pair information
Total number of shell pairs                 ...     32640
Shell pairs after pre-screening             ...     17813
Total number of primitive shell pairs       ...    123863
Primitive shell pairs kept                  ...     41734
          la=0 lb=0:   5380 shell pairs
          la=1 lb=0:   7057 shell pairs
          la=1 lb=1:   2295 shell pairs
          la=2 lb=0:   1674 shell pairs
          la=2 lb=1:   1119 shell pairs
          la=2 lb=2:    154 shell pairs
          la=3 lb=0:     69 shell pairs
          la=3 lb=1:     52 shell pairs
          la=3 lb=2:     12 shell pairs
          la=3 lb=3:      1 shell pairs

Calculating one electron integrals          ... done (  0.0 sec)
Calculating RI/J V-Matrix + Cholesky decomp.... done (  0.1 sec)
Calculating Nuclear repulsion               ... done (  0.0 sec) ENN=   3211.698422934037 Eh

SHARK setup successfully completed in   0.5 seconds

Maximum memory used throughout the entire GTOINT-calculation: 31.6 MB


           ************************************************************
           *        Program running with 8 parallel MPI-processes     *
           *              working on a common directory               *
           ************************************************************
-------------------------------------------------------------------------------
                                 ORCA SCF
-------------------------------------------------------------------------------

------------
SCF SETTINGS
------------
Hamiltonian:
 Density Functional     Method          .... DFT(GTOs)
 Exchange Functional    Exchange        .... B88
   X-Alpha parameter    XAlpha          ....  0.666667
   Becke's b parameter  XBeta           ....  0.004200
 Correlation Functional Correlation     .... LYP
 LDA part of GGA corr.  LDAOpt          .... VWN-5
 Gradients option       PostSCFGGA      .... off
 Hybrid DFT is turned on
   Fraction HF Exchange ScalHFX         ....  0.200000
   Scaling of DF-GGA-X  ScalDFX         ....  0.720000
   Scaling of DF-GGA-C  ScalDFC         ....  0.810000
   Scaling of DF-LDA-C  ScalLDAC        ....  1.000000
   Perturbative correction              ....  0.000000
   Density functional embedding theory  .... OFF
   NL short-range parameter             ....  4.800000
 RI-approximation to the Coulomb term is turned on
   Number of AuxJ basis functions       .... 1168
   RIJ-COSX (HFX calculated with COS-X)).... on


General Settings:
 Integral files         IntName         .... input_9
 Hartree-Fock type      HFTyp           .... UHF
 Total Charge           Charge          ....   -2
 Multiplicity           Mult            ....    2
 Number of Electrons    NEL             ....  233
 Basis Dimension        Dim             ....  517
 Nuclear Repulsion      ENuc            ....   3211.6984229340 Eh

Convergence Acceleration:
 DIIS                   CNVDIIS         .... on
   Start iteration      DIISMaxIt       ....    12
   Startup error        DIISStart       ....  0.200000
   # of expansion vecs  DIISMaxEq       ....     5
   Bias factor          DIISBfac        ....   1.050
   Max. coefficient     DIISMaxC        ....  10.000
 Trust-Rad. Augm. Hess. CNVTRAH         .... auto
   Auto Start mean grad. ratio tolernc. ....  1.125000
   Auto Start start iteration           ....    20
   Auto Start num. interpolation iter.  ....    10
   Max. Number of Micro iterations      ....    16
   Max. Number of Macro iterations      .... Maxiter - #DIIS iter
   Number of Davidson start vectors     ....     2
   Converg. threshold I  (grad. norm)   ....   5.000e-05
   Converg. threshold II (energy diff.) ....   1.000e-06
   Grad. Scal. Fac. for Micro threshold ....   0.100
   Minimum threshold for Micro iter.    ....   0.010
   NR start threshold (gradient norm)   ....   0.001
   Initial trust radius                 ....   0.400
   Minimum AH scaling param. (alpha)    ....   1.000
   Maximum AH scaling param. (alpha)    .... 1000.000
   Orbital update algorithm             .... Taylor
   White noise on init. David. guess    .... on
   Maximum white noise                  ....   0.010
   Quad. conv. algorithm                .... NR
 SOSCF                  CNVSOSCF        .... off
 Level Shifting         CNVShift        .... on
   Level shift para.    LevelShift      ....    0.2500
   Turn off err/grad.   ShiftErr        ....    0.0010
 Zerner damping         CNVZerner       .... off
 Static damping         CNVDamp         .... on
   Fraction old density DampFac         ....    0.7000
   Max. Damping (<1)    DampMax         ....    0.9800
   Min. Damping (>=0)   DampMin         ....    0.0000
   Turn off err/grad.   DampErr         ....    0.1000
 Fernandez-Rico         CNVRico         .... off

SCF Procedure:
 Maximum # iterations   MaxIter         ....   125
 SCF integral mode      SCFMode         .... Direct
   Integral package                     .... SHARK and LIBINT hybrid scheme
 Reset frequency        DirectResetFreq ....    20
 Integral Threshold     Thresh          ....  1.000e-10 Eh
 Primitive CutOff       TCut            ....  1.000e-11 Eh

Convergence Tolerance:
 Convergence Check Mode ConvCheckMode   .... Total+1el-Energy
 Convergence forced     ConvForced      .... 0
 Energy Change          TolE            ....  1.000e-06 Eh
 1-El. energy change                    ....  1.000e-03 Eh
 DIIS Error             TolErr          ....  1.000e-06


Diagonalization of the overlap matrix:
Smallest eigenvalue                        ... 1.819e-04
Time for diagonalization                   ...    0.108 sec
Threshold for overlap eigenvalues          ... 1.000e-08
Number of eigenvalues below threshold      ... 0
Time for construction of square roots      ...    0.120 sec
Total time needed                          ...    0.231 sec

Time for model grid setup =    0.266 sec

------------------------------
INITIAL GUESS: MODEL POTENTIAL
------------------------------
Loading Hartree-Fock densities                     ... done
Calculating cut-offs                               ... done
Initializing the effective Hamiltonian             ... done
Setting up the integral package (SHARK)            ... done
Starting the Coulomb interaction                   ... done (   0.2 sec)
Reading the grid                                   ... done
Mapping shells                                     ... done
Starting the XC term evaluation                    ... done (   0.1 sec)
  promolecular density results
     # of electrons  =    230.996235009
     EX              =   -307.544949275
     EC              =     -9.026667486
     EX+EC           =   -316.571616760
Transforming the Hamiltonian                       ... done (   0.1 sec)
Diagonalizing the Hamiltonian                      ... done (   0.1 sec)
Back transforming the eigenvectors                 ... done (   0.0 sec)
Now organizing SCF variables                       ... done
                      ------------------
                      INITIAL GUESS DONE (   0.8 sec)
                      ------------------
-------------------
DFT GRID GENERATION
-------------------

General Integration Accuracy     IntAcc      ... 4.388
Radial Grid Type                 RadialGrid  ... OptM3 with GC (2021)
Angular Grid (max. ang.)         AngularGrid ... 4 (Lebedev-302)
Angular grid pruning method      GridPruning ... 4 (adaptive)
Weight generation scheme         WeightScheme... Becke
Basis function cutoff            BFCut       ... 1.0000e-10
Integration weight cutoff        WCut        ... 1.0000e-14
Angular grids for H and He will be reduced by one unit
Partially contracted basis set               ... off
Rotationally invariant grid construction     ... off

Total number of grid points                  ...   184005
Total number of batches                      ...     2889
Average number of points per batch           ...       63
Average number of grid points per atom       ...     5750
Time for grid setup =    1.337 sec

--------------------
COSX GRID GENERATION
--------------------

GRIDX 1
-------
General Integration Accuracy     IntAcc      ... 3.816
Radial Grid Type                 RadialGrid  ... OptM3 with GC (2021)
Angular Grid (max. ang.)         AngularGrid ... 1 (Lebedev-50)
Angular grid pruning method      GridPruning ... 4 (adaptive)
Weight generation scheme         WeightScheme... Becke
Basis function cutoff            BFCut       ... 1.0000e-10
Integration weight cutoff        WCut        ... 1.0000e-14
Angular grids for H and He will be reduced by one unit
Partially contracted basis set               ... on
Rotationally invariant grid construction     ... off

Total number of grid points                  ...    22817
Total number of batches                      ...      375
Average number of points per batch           ...       60
Average number of grid points per atom       ...      713
UseSFitting                                  ... on

GRIDX 2
-------
General Integration Accuracy     IntAcc      ... 4.020
Radial Grid Type                 RadialGrid  ... OptM3 with GC (2021)
Angular Grid (max. ang.)         AngularGrid ... 2 (Lebedev-110)
Angular grid pruning method      GridPruning ... 4 (adaptive)
Weight generation scheme         WeightScheme... Becke
Basis function cutoff            BFCut       ... 1.0000e-10
Integration weight cutoff        WCut        ... 1.0000e-14
Angular grids for H and He will be reduced by one unit
Partially contracted basis set               ... on
Rotationally invariant grid construction     ... off

Total number of grid points                  ...    49174
Total number of batches                      ...      786
Average number of points per batch           ...       62
Average number of grid points per atom       ...     1537
UseSFitting                                  ... on

GRIDX 3
-------
General Integration Accuracy     IntAcc      ... 4.338
Radial Grid Type                 RadialGrid  ... OptM3 with GC (2021)
Angular Grid (max. ang.)         AngularGrid ... 3 (Lebedev-194)
Angular grid pruning method      GridPruning ... 4 (adaptive)
Weight generation scheme         WeightScheme... Becke
Basis function cutoff            BFCut       ... 1.0000e-10
Integration weight cutoff        WCut        ... 1.0000e-14
Angular grids for H and He will be reduced by one unit
Partially contracted basis set               ... on
Rotationally invariant grid construction     ... off

Total number of grid points                  ...   112066
Total number of batches                      ...     1767
Average number of points per batch           ...       63
Average number of grid points per atom       ...     3502
UseSFitting                                  ... on

Time for X-Grid setup             =    1.283 sec

--------------
SCF ITERATIONS
--------------
ITER       Energy         Delta-E        Max-DP      RMS-DP      [F,P]     Damp
               ***  Starting incremental Fock matrix formation  ***
  0  -4592.0164972084   0.000000000000 0.07036111  0.00090934  0.2361908 0.7000
  1  -4592.3003687473  -0.283871538920 0.11220254  0.00090605  0.1560112 0.7000
                               ***Turning on DIIS***
  2  -4592.4460471592  -0.145678411906 0.08060253  0.00057076  0.1091686 0.7000
  3  -4592.5262532524  -0.080206093171 0.11193267  0.00090056  0.0772193 0.0000
  4  -4592.7160035350  -0.189750282584 0.06702171  0.00048290  0.0150782 0.0000
  5  -4592.7215299887  -0.005526453684 0.01194644  0.00010304  0.0129222 0.0000
  6  -4592.7227130212  -0.001183032516 0.00226567  0.00004405  0.0030844 0.0000
  7  -4592.7229058906  -0.000192869382 0.00159506  0.00002186  0.0014360 0.0000
  8  -4592.7229704589  -0.000064568343 0.00128352  0.00001583  0.0014220 0.0000
  9  -4592.7230058809  -0.000035422034 0.00236321  0.00002210  0.0009848 0.0000
               *** Restarting incremental Fock matrix formation ***
                                   *** Resetting DIIS ***
 10  -4592.7230344107  -0.000028529749 0.00108768  0.00001433  0.0008599 0.0000
 11  -4592.7230027958   0.000031614866 0.00033874  0.00000395  0.0025076 0.0000
 12  -4592.7230396927  -0.000036896836 0.00021666  0.00000335  0.0010670 0.0000
 13  -4592.7230463997  -0.000006707082 0.00072541  0.00000504  0.0004667 0.0000
 14  -4592.7230497110  -0.000003311220 0.00029688  0.00000310  0.0001724 0.0000
 15  -4592.7230505999  -0.000000888920 0.00014272  0.00000160  0.0001878 0.0000
 16  -4592.7230508983  -0.000000298435 0.00026886  0.00000196  0.0001177 0.0000
 17  -4592.7230510893  -0.000000190958 0.00013556  0.00000089  0.0000642 0.0000
 18  -4592.7230510749   0.000000014397 0.00002746  0.00000030  0.0000135 0.0000
 19  -4592.7230510745   0.000000000405 0.00002138  0.00000019  0.0000181 0.0000
                 **** Energy Check signals convergence ****

               *****************************************************
               *                     SUCCESS                       *
               *           SCF CONVERGED AFTER  20 CYCLES          *
               *****************************************************

Old exchange energy                            =    -61.761988274 Eh
New exchange energy                            =    -61.761975714 Eh
Exchange energy change after final integration =      0.000012560 Eh
Total energy after final integration           =  -4592.723038580 Eh
Final COS-X integration done in                =    12.578 sec

----------------
TOTAL SCF ENERGY
----------------

Total Energy       :        -4592.72303858 Eh         -124974.34745 eV

Components:
Nuclear Repulsion  :         3211.69842293 Eh           87394.75715 eV
Electronic Energy  :        -7804.42146151 Eh         -212369.10460 eV
One Electron Energy:       -12787.17235141 Eh         -347956.64946 eV
Two Electron Energy:         4982.75088989 Eh          135587.54485 eV
Max COSX asymmetry :            0.00000173 Eh               0.00005 eV

Virial components:
Potential Energy   :        -9173.79996954 Eh         -249631.78821 eV
Kinetic Energy     :         4581.07693096 Eh          124657.44075 eV
Virial Ratio       :            2.00254222


DFT components:
N(Alpha)           :      116.999967653473 electrons
N(Beta)            :      115.999967025877 electrons
N(Total)           :      232.999934679350 electrons
E(X)               :     -245.485895047286 Eh       
E(C)               :      -10.624482326245 Eh       
E(XC)              :     -256.110377373532 Eh       
DFET-embed. en.    :        0.000000000000 Eh       

---------------
SCF CONVERGENCE
---------------

  Last Energy change         ...   -6.5665e-08  Tolerance :   1.0000e-06
  Last MAX-Density change    ...    0.0000e+00  Tolerance :   1.0000e-05
  Last RMS-Density change    ...    0.0000e+00  Tolerance :   1.0000e-06
  Last DIIS Error            ...    9.9100e-06  Tolerance :   1.0000e-06

             **** THE GBW FILE WAS UPDATED (input_9.gbw) ****
             **** DENSITY input_9.scfp WAS UPDATED ****
             **** ENERGY FILE WAS UPDATED (input_9.en.tmp) ****
----------------------
UHF SPIN CONTAMINATION
----------------------

Warning: in a DFT calculation there is little theoretical justification to 
         calculate <S**2> as in Hartree-Fock theory. We will do it anyways
         but you should keep in mind that the values have only limited relevance

Expectation value of <S**2>     :     0.764857
Ideal value S*(S+1) for S=0.5   :     0.750000
Deviation                       :     0.014857

             **** THE GBW FILE WAS UPDATED (input_9.gbw) ****
             **** DENSITY input_9.scfp WAS UPDATED ****
----------------
ORBITAL ENERGIES
----------------
                 SPIN UP ORBITALS
  NO   OCC          E(Eh)            E(eV) 
   0   1.0000    -196.639898     -5350.8437 
   1   1.0000     -88.677331     -2413.0329 
   2   1.0000     -88.677311     -2413.0323 
   3   1.0000     -88.675607     -2412.9859 
   4   1.0000     -88.675481     -2412.9825 
   5   1.0000     -88.612013     -2411.2554 
   6   1.0000     -88.611976     -2411.2545 
   7   1.0000     -88.611772     -2411.2489 
   8   1.0000     -88.611756     -2411.2485 
   9   1.0000     -22.015722      -599.0782 
  10   1.0000     -18.857028      -513.1258 
  11   1.0000     -18.522546      -504.0241 
  12   1.0000     -18.516791      -503.8675 
  13   1.0000     -18.516712      -503.8654 
  14   1.0000     -10.017520      -272.5906 
  15   1.0000     -10.017491      -272.5898 
  16   1.0000     -10.015342      -272.5313 
  17   1.0000     -10.015263      -272.5292 
  18   1.0000     -10.005320      -272.2586 
  19   1.0000     -10.005262      -272.2570 
  20   1.0000      -9.992238      -271.9026 
  21   1.0000      -9.992216      -271.9020 
  22   1.0000      -9.990743      -271.8619 
  23   1.0000      -9.990710      -271.8610 
  24   1.0000      -7.730722      -210.3636 
  25   1.0000      -7.730712      -210.3634 
  26   1.0000      -7.729469      -210.3295 
  27   1.0000      -7.729364      -210.3267 
  28   1.0000      -7.666498      -208.6160 
  29   1.0000      -7.666476      -208.6154 
  30   1.0000      -7.666162      -208.6069 
  31   1.0000      -7.666153      -208.6066 
  32   1.0000      -5.696017      -154.9965 
  33   1.0000      -5.696006      -154.9962 
  34   1.0000      -5.694673      -154.9599 
  35   1.0000      -5.694568      -154.9571 
  36   1.0000      -5.692060      -154.8888 
  37   1.0000      -5.692047      -154.8885 
  38   1.0000      -5.690844      -154.8557 
  39   1.0000      -5.690735      -154.8528 
  40   1.0000      -5.685483      -154.7099 
  41   1.0000      -5.685473      -154.7096 
  42   1.0000      -5.684196      -154.6748 
  43   1.0000      -5.684094      -154.6721 
  44   1.0000      -5.631295      -153.2353 
  45   1.0000      -5.631283      -153.2350 
  46   1.0000      -5.631056      -153.2288 
  47   1.0000      -5.631039      -153.2284 
  48   1.0000      -5.624882      -153.0608 
  49   1.0000      -5.624866      -153.0604 
  50   1.0000      -5.624650      -153.0545 
  51   1.0000      -5.624635      -153.0541 
  52   1.0000      -5.624523      -153.0511 
  53   1.0000      -5.624491      -153.0502 
  54   1.0000      -5.624113      -153.0399 
  55   1.0000      -5.624100      -153.0396 
  56   1.0000      -2.409462       -65.5648 
  57   1.0000      -1.450825       -39.4790 
  58   1.0000      -1.439268       -39.1645 
  59   1.0000      -1.438178       -39.1348 
  60   1.0000      -0.643038       -17.4980 
  61   1.0000      -0.642970       -17.4961 
  62   1.0000      -0.618091       -16.8191 
  63   1.0000      -0.593460       -16.1489 
  64   1.0000      -0.593012       -16.1367 
  65   1.0000      -0.575242       -15.6531 
  66   1.0000      -0.575160       -15.6509 
  67   1.0000      -0.491282       -13.3685 
  68   1.0000      -0.489400       -13.3173 
  69   1.0000      -0.487179       -13.2568 
  70   1.0000      -0.486002       -13.2248 
  71   1.0000      -0.422725       -11.5029 
  72   1.0000      -0.419957       -11.4276 
  73   1.0000      -0.412230       -11.2173 
  74   1.0000      -0.407127       -11.0785 
  75   1.0000      -0.375987       -10.2311 
  76   1.0000      -0.372845       -10.1456 
  77   1.0000      -0.291897        -7.9429 
  78   1.0000      -0.291702        -7.9376 
  79   1.0000      -0.277282        -7.5452 
  80   1.0000      -0.277006        -7.5377 
  81   1.0000      -0.260220        -7.0810 
  82   1.0000      -0.255415        -6.9502 
  83   1.0000      -0.241649        -6.5756 
  84   1.0000      -0.238842        -6.4992 
  85   1.0000      -0.195271        -5.3136 
  86   1.0000      -0.192380        -5.2349 
  87   1.0000      -0.191886        -5.2215 
  88   1.0000      -0.191246        -5.2041 
  89   1.0000      -0.184602        -5.0233 
  90   1.0000      -0.184389        -5.0175 
  91   1.0000      -0.180861        -4.9215 
  92   1.0000      -0.150867        -4.1053 
  93   1.0000      -0.149493        -4.0679 
  94   1.0000      -0.143404        -3.9022 
  95   1.0000      -0.143194        -3.8965 
  96   1.0000      -0.141796        -3.8585 
  97   1.0000      -0.097278        -2.6471 
  98   1.0000      -0.096338        -2.6215 
  99   1.0000      -0.089495        -2.4353 
 100   1.0000      -0.083262        -2.2657 
 101   1.0000      -0.081498        -2.2177 
 102   1.0000      -0.080097        -2.1796 
 103   1.0000      -0.069621        -1.8945 
 104   1.0000      -0.050290        -1.3685 
 105   1.0000      -0.038066        -1.0358 
 106   1.0000      -0.038048        -1.0353 
 107   1.0000      -0.035271        -0.9598 
 108   1.0000      -0.031947        -0.8693 
 109   1.0000      -0.012869        -0.3502 
 110   1.0000      -0.004193        -0.1141 
 111   1.0000      -0.003211        -0.0874 
 112   1.0000       0.006285         0.1710 
 113   1.0000       0.010851         0.2953 
 114   1.0000       0.016423         0.4469 
 115   1.0000       0.033717         0.9175 
 116   1.0000       0.059863         1.6290 
 117   0.0000       0.188113         5.1188 
 118   0.0000       0.195559         5.3214 
 119   0.0000       0.196260         5.3405 
 120   0.0000       0.196539         5.3481 
 121   0.0000       0.211174         5.7463 
 122   0.0000       0.213552         5.8110 
 123   0.0000       0.217983         5.9316 
 124   0.0000       0.225323         6.1314 
 125   0.0000       0.227569         6.1925 
 126   0.0000       0.234991         6.3944 
 127   0.0000       0.241356         6.5676 
 128   0.0000       0.243530         6.6268 
 129   0.0000       0.244068         6.6414 
 130   0.0000       0.246006         6.6942 
 131   0.0000       0.248369         6.7585 
 132   0.0000       0.251925         6.8552 
 133   0.0000       0.255680         6.9574 
 134   0.0000       0.257236         6.9998 
 135   0.0000       0.261013         7.1025 
 136   0.0000       0.271594         7.3904 
 137   0.0000       0.275868         7.5068 
 138   0.0000       0.277634         7.5548 
 139   0.0000       0.283201         7.7063 
 140   0.0000       0.284038         7.7291 
 141   0.0000       0.284729         7.7479 
 142   0.0000       0.286668         7.8006 
 143   0.0000       0.293003         7.9730 
 144   0.0000       0.306539         8.3414 
 145   0.0000       0.308703         8.4002 
 146   0.0000       0.309105         8.4112 
 147   0.0000       0.319996         8.7075 
 148   0.0000       0.326261         8.8780 
 149   0.0000       0.328833         8.9480 
 150   0.0000       0.347871         9.4661 
 151   0.0000       0.360510         9.8100 
 152   0.0000       0.374476        10.1900 
 153   0.0000       0.374879        10.2010 
 154   0.0000       0.393419        10.7055 
 155   0.0000       0.395730        10.7684 
 156   0.0000       0.395753        10.7690 
 157   0.0000       0.396418        10.7871 
 158   0.0000       0.402049        10.9403 
 159   0.0000       0.412957        11.2371 
 160   0.0000       0.423806        11.5324 
 161   0.0000       0.424654        11.5554 
 162   0.0000       0.426166        11.5966 
 163   0.0000       0.429391        11.6843 
 164   0.0000       0.444160        12.0862 
 165   0.0000       0.452928        12.3248 
 166   0.0000       0.455145        12.3851 
 167   0.0000       0.457655        12.4534 
 168   0.0000       0.460607        12.5338 
 169   0.0000       0.461974        12.5710 
 170   0.0000       0.471354        12.8262 
 171   0.0000       0.476314        12.9612 
 172   0.0000       0.479021        13.0348 
 173   0.0000       0.484210        13.1760 
 174   0.0000       0.492030        13.3888 
 175   0.0000       0.495634        13.4869 
 176   0.0000       0.500964        13.6319 
 177   0.0000       0.502210        13.6658 
 178   0.0000       0.503762        13.7081 
 179   0.0000       0.511040        13.9061 
 180   0.0000       0.511415        13.9163 
 181   0.0000       0.516527        14.0554 
 182   0.0000       0.520990        14.1768 
 183   0.0000       0.522966        14.2306 
 184   0.0000       0.535814        14.5802 
 185   0.0000       0.545031        14.8310 
 186   0.0000       0.550652        14.9840 
 187   0.0000       0.550995        14.9933 
 188   0.0000       0.555940        15.1279 
 189   0.0000       0.557287        15.1646 
 190   0.0000       0.561306        15.2739 
 191   0.0000       0.570344        15.5198 
 192   0.0000       0.575239        15.6530 
 193   0.0000       0.575441        15.6586 
 194   0.0000       0.577159        15.7053 
 195   0.0000       0.580613        15.7993 
 196   0.0000       0.582232        15.8433 
 197   0.0000       0.586133        15.9495 
 198   0.0000       0.586774        15.9669 
 199   0.0000       0.589884        16.0515 
 200   0.0000       0.592191        16.1143 
 201   0.0000       0.595359        16.2005 
 202   0.0000       0.604036        16.4367 
 203   0.0000       0.605814        16.4850 
 204   0.0000       0.614989        16.7347 
 205   0.0000       0.616647        16.7798 
 206   0.0000       0.623340        16.9619 
 207   0.0000       0.624887        17.0040 
 208   0.0000       0.627760        17.0822 
 209   0.0000       0.634127        17.2555 
 210   0.0000       0.639712        17.4075 
 211   0.0000       0.642488        17.4830 
 212   0.0000       0.646676        17.5969 
 213   0.0000       0.648510        17.6468 
 214   0.0000       0.655198        17.8288 
 215   0.0000       0.655957        17.8495 
 216   0.0000       0.660677        17.9779 
 217   0.0000       0.661066        17.9885 
 218   0.0000       0.670774        18.2527 
 219   0.0000       0.674907        18.3652 
 220   0.0000       0.679231        18.4828 
 221   0.0000       0.686727        18.6868 
 222   0.0000       0.690791        18.7974 
 223   0.0000       0.707486        19.2517 
 224   0.0000       0.717994        19.5376 
 225   0.0000       0.722891        19.6709 
 226   0.0000       0.734775        19.9943 
 227   0.0000       0.742521        20.2050 
 228   0.0000       0.747545        20.3417 
 229   0.0000       0.756971        20.5982 
 230   0.0000       0.769399        20.9364 
 231   0.0000       0.774272        21.0690 
 232   0.0000       0.778145        21.1744 
 233   0.0000       0.798488        21.7280 
 234   0.0000       0.801729        21.8162 
 235   0.0000       0.838224        22.8092 
 236   0.0000       0.862431        23.4680 
 237   0.0000       0.868760        23.6402 
 238   0.0000       0.874151        23.7869 
 239   0.0000       0.885238        24.0886 
 240   0.0000       0.888971        24.1901 
 241   0.0000       0.904701        24.6182 
 242   0.0000       0.911708        24.8088 
 243   0.0000       0.914057        24.8728 
 244   0.0000       0.919830        25.0299 
 245   0.0000       0.922565        25.1043 
 246   0.0000       0.930659        25.3245 
 247   0.0000       0.949702        25.8427 
 248   0.0000       0.962507        26.1911 
 249   0.0000       0.974769        26.5248 
 250   0.0000       0.977002        26.5856 
 251   0.0000       0.980075        26.6692 
 252   0.0000       0.983855        26.7721 
 253   0.0000       0.988361        26.8947 
 254   0.0000       0.998682        27.1755 
 255   0.0000       1.002298        27.2739 
 256   0.0000       1.005798        27.3691 
 257   0.0000       1.020404        27.7666 
 258   0.0000       1.028182        27.9783 
 259   0.0000       1.031345        28.0643 
 260   0.0000       1.054097        28.6834 
 261   0.0000       1.056282        28.7429 
 262   0.0000       1.058485        28.8028 
 263   0.0000       1.061812        28.8934 
 264   0.0000       1.079105        29.3639 
 265   0.0000       1.090959        29.6865 
 266   0.0000       1.101055        29.9612 
 267   0.0000       1.121848        30.5270 
 268   0.0000       1.122340        30.5404 
 269   0.0000       1.122794        30.5528 
 270   0.0000       1.123439        30.5703 
 271   0.0000       1.132441        30.8153 
 272   0.0000       1.133794        30.8521 
 273   0.0000       1.137061        30.9410 
 274   0.0000       1.138495        30.9800 
 275   0.0000       1.150165        31.2976 
 276   0.0000       1.155959        31.4552 
 277   0.0000       1.159968        31.5643 
 278   0.0000       1.182824        32.1863 
 279   0.0000       1.193742        32.4834 
 280   0.0000       1.201541        32.6956 
 281   0.0000       1.238355        33.6974 
 282   0.0000       1.238687        33.7064 
 283   0.0000       1.272336        34.6220 
 284   0.0000       1.274583        34.6832 
 285   0.0000       1.289551        35.0905 
 286   0.0000       1.298008        35.3206 
 287   0.0000       1.303475        35.4694 
 288   0.0000       1.315242        35.7896 
 289   0.0000       1.351044        36.7638 
 290   0.0000       1.356932        36.9240 
 291   0.0000       1.357670        36.9441 
 292   0.0000       1.373457        37.3737 
 293   0.0000       1.406802        38.2810 
 294   0.0000       1.416678        38.5498 
 295   0.0000       1.424859        38.7724 
 296   0.0000       1.442664        39.2569 
 297   0.0000       1.443751        39.2865 
 298   0.0000       1.460313        39.7371 
 299   0.0000       1.470542        40.0155 
 300   0.0000       1.471184        40.0329 
 301   0.0000       1.484706        40.4009 
 302   0.0000       1.486146        40.4401 
 303   0.0000       1.487915        40.4882 
 304   0.0000       1.493572        40.6421 
 305   0.0000       1.517851        41.3028 
 306   0.0000       1.522107        41.4186 
 307   0.0000       1.528950        41.6048 
 308   0.0000       1.548500        42.1368 
 309   0.0000       1.551080        42.2070 
 310   0.0000       1.564796        42.5803 
 311   0.0000       1.565301        42.5940 
 312   0.0000       1.601630        43.5826 
 313   0.0000       1.602713        43.6120 
 314   0.0000       1.612030        43.8656 
 315   0.0000       1.616248        43.9804 
 316   0.0000       1.624894        44.2156 
 317   0.0000       1.638987        44.5991 
 318   0.0000       1.659632        45.1609 
 319   0.0000       1.665382        45.3174 
 320   0.0000       1.667448        45.3736 
 321   0.0000       1.675840        45.6019 
 322   0.0000       1.676654        45.6241 
 323   0.0000       1.696404        46.1615 
 324   0.0000       1.703599        46.3573 
 325   0.0000       1.710403        46.5424 
 326   0.0000       1.724192        46.9177 
 327   0.0000       1.737447        47.2783 
 328   0.0000       1.742872        47.4260 
 329   0.0000       1.751919        47.6722 
 330   0.0000       1.757599        47.8267 
 331   0.0000       1.768845        48.1327 
 332   0.0000       1.774597        48.2892 
 333   0.0000       1.794315        48.8258 
 334   0.0000       1.794916        48.8421 
 335   0.0000       1.800311        48.9890 
 336   0.0000       1.810169        49.2572 
 337   0.0000       1.824155        49.6378 
 338   0.0000       1.831678        49.8425 
 339   0.0000       1.840334        50.0780 
 340   0.0000       1.844423        50.1893 
 341   0.0000       1.848463        50.2992 
 342   0.0000       1.852481        50.4086 
 343   0.0000       1.854910        50.4747 
 344   0.0000       1.859505        50.5997 
 345   0.0000       1.873163        50.9713 
 346   0.0000       1.873917        50.9919 
 347   0.0000       1.920455        52.2582 
 348   0.0000       1.929176        52.4956 
 349   0.0000       1.932968        52.5987 
 350   0.0000       1.938027        52.7364 
 351   0.0000       1.949976        53.0616 
 352   0.0000       1.950977        53.0888 
 353   0.0000       1.962114        53.3918 
 354   0.0000       1.962502        53.4024 
 355   0.0000       1.967433        53.5366 
 356   0.0000       1.967947        53.5506 
 357   0.0000       2.010725        54.7146 
 358   0.0000       2.012485        54.7625 
 359   0.0000       2.041238        55.5449 
 360   0.0000       2.050728        55.8032 
 361   0.0000       2.066667        56.2369 
 362   0.0000       2.068551        56.2881 
 363   0.0000       2.071529        56.3692 
 364   0.0000       2.074463        56.4490 
 365   0.0000       2.108573        57.3772 
 366   0.0000       2.112384        57.4809 
 367   0.0000       2.124576        57.8127 
 368   0.0000       2.126364        57.8613 
 369   0.0000       2.155787        58.6619 
 370   0.0000       2.160861        58.8000 
 371   0.0000       2.162200        58.8364 
 372   0.0000       2.169737        59.0415 
 373   0.0000       2.187779        59.5325 
 374   0.0000       2.195232        59.7353 
 375   0.0000       2.197921        59.8085 
 376   0.0000       2.205630        60.0182 
 377   0.0000       2.206075        60.0304 
 378   0.0000       2.212412        60.2028 
 379   0.0000       2.225202        60.5508 
 380   0.0000       2.234538        60.8049 
 381   0.0000       2.238492        60.9125 
 382   0.0000       2.240242        60.9601 
 383   0.0000       2.265099        61.6365 
 384   0.0000       2.273461        61.8640 
 385   0.0000       2.286153        62.2094 
 386   0.0000       2.287013        62.2328 
 387   0.0000       2.292121        62.3718 
 388   0.0000       2.295296        62.4582 
 389   0.0000       2.314596        62.9834 
 390   0.0000       2.321157        63.1619 
 391   0.0000       2.352966        64.0275 
 392   0.0000       2.353152        64.0325 
 393   0.0000       2.356774        64.1311 
 394   0.0000       2.401385        65.3450 
 395   0.0000       2.403087        65.3913 
 396   0.0000       2.406181        65.4755 
 397   0.0000       2.408698        65.5440 
 398   0.0000       2.414288        65.6961 
 399   0.0000       2.445168        66.5364 
 400   0.0000       2.446927        66.5843 
 401   0.0000       2.470689        67.2309 
 402   0.0000       2.471400        67.2502 
 403   0.0000       2.511017        68.3282 
 404   0.0000       2.519392        68.5561 
 405   0.0000       2.526574        68.7516 
 406   0.0000       2.531224        68.8781 
 407   0.0000       2.548337        69.3438 
 408   0.0000       2.549917        69.3868 
 409   0.0000       2.554458        69.5103 
 410   0.0000       2.554647        69.5155 
 411   0.0000       2.598883        70.7192 
 412   0.0000       2.604297        70.8665 
 413   0.0000       2.612774        71.0972 
 414   0.0000       2.618227        71.2456 
 415   0.0000       2.621063        71.3228 
 416   0.0000       2.633235        71.6540 
 417   0.0000       2.636804        71.7511 
 418   0.0000       2.668538        72.6146 
 419   0.0000       2.668891        72.6242 
 420   0.0000       2.677933        72.8703 
 421   0.0000       2.681060        72.9553 
 422   0.0000       2.699249        73.4503 
 423   0.0000       2.699678        73.4620 
 424   0.0000       2.754759        74.9608 
 425   0.0000       2.759422        75.0877 
 426   0.0000       2.776049        75.5401 
 427   0.0000       2.777839        75.5889 
 428   0.0000       2.794111        76.0316 
 429   0.0000       2.805597        76.3442 
 430   0.0000       2.819650        76.7266 
 431   0.0000       2.820044        76.7373 
 432   0.0000       2.850835        77.5752 
 433   0.0000       2.852245        77.6135 
 434   0.0000       2.862998        77.9061 
 435   0.0000       2.864283        77.9411 
 436   0.0000       2.890917        78.6659 
 437   0.0000       2.910487        79.1984 
 438   0.0000       2.911849        79.2355 
 439   0.0000       2.914665        79.3121 
 440   0.0000       2.919039        79.4311 
 441   0.0000       2.924005        79.5662 
 442   0.0000       2.928393        79.6856 
 443   0.0000       2.950190        80.2787 
 444   0.0000       2.966005        80.7091 
 445   0.0000       3.012425        81.9723 
 446   0.0000       3.026314        82.3502 
 447   0.0000       3.047740        82.9332 
 448   0.0000       3.048544        82.9551 
 449   0.0000       3.053239        83.0829 
 450   0.0000       3.054251        83.1104 
 451   0.0000       3.184165        86.6455 
 452   0.0000       3.185811        86.6903 
 453   0.0000       3.328614        90.5762 
 454   0.0000       3.329223        90.5928 
 455   0.0000       3.399390        92.5021 
 456   0.0000       3.429424        93.3194 
 457   0.0000       3.443199        93.6942 
 458   0.0000       3.452405        93.9447 
 459   0.0000       3.476626        94.6038 
 460   0.0000       3.476829        94.6093 
 461   0.0000       3.520453        95.7964 
 462   0.0000       3.520896        95.8085 
 463   0.0000       3.537789        96.2681 
 464   0.0000       3.538065        96.2756 
 465   0.0000       3.570082        97.1469 
 466   0.0000       3.570247        97.1514 
 467   0.0000       3.581092        97.4465 
 468   0.0000       3.581884        97.4680 
 469   0.0000       3.802412       103.4689 
 470   0.0000       3.844506       104.6143 
 471   0.0000       3.861397       105.0740 
 472   0.0000       3.995060       108.7111 
 473   0.0000       4.216015       114.7236 
 474   0.0000       4.542770       123.6151 
 475   0.0000       4.559225       124.0628 
 476   0.0000       4.563919       124.1905 
 477   0.0000       4.591538       124.9421 
 478   0.0000       4.618098       125.6648 
 479   0.0000       4.621444       125.7559 
 480   0.0000       5.202600       141.5700 
 481   0.0000       7.008970       190.7238 
 482   0.0000       7.055804       191.9982 
 483   0.0000       7.060130       192.1159 
 484   0.0000      18.718485       509.3559 
 485   0.0000      18.761036       510.5137 
 486   0.0000      18.999236       516.9955 
 487   0.0000      19.014904       517.4218 
 488   0.0000      19.048895       518.3468 
 489   0.0000      19.054671       518.5040 
 490   0.0000      19.248628       523.7818 
 491   0.0000      19.329392       525.9795 
 492   0.0000      19.779430       538.2256 
 493   0.0000      21.669707       589.6627 
 494   0.0000      21.703225       590.5748 
 495   0.0000      22.112614       601.7148 
[...]
Total number of batches                      ...      238
Average number of points per batch           ...       58
Average number of grid points per atom       ...      437

Memory available               ... 870.3 MB
Memory needed per perturbation ...  23.5 MB
Perturbations treated per batch... 3
Number of batches              ... 1
     CP-SCF ITERATION   0:   4.4781e-02 (   2.9 sec   0/  3 done)
     CP-SCF ITERATION   1:   1.5529e-03 (   2.9 sec   0/  3 done)
     CP-SCF ITERATION   2:   3.3041e-04 (   2.9 sec   3/  3 done)
                    *** THE CP-SCF HAS CONVERGED ***

Forming final perturbed densities           ... done
Transforming perturbed density to AO basis  ... done

 Raw HFC matrix (all values in MHz): 
 -----------------------------------
                 0.0564              -0.6084              -0.2531
                -0.6079               0.1577               0.2635
                -0.2528               0.2638              -0.3667

 A(FC)          -0.0501              -0.0501              -0.0501
 A(SD)          -0.4289              -0.4577               0.8866
 A(ORB+DIA)      0.0026               0.0027              -0.0075    A(PC) =  -0.0007
 A(ORB)          0.0027               0.0027              -0.0077    A(PC) =  -0.0007
 A(DIA)         -0.0000              -0.0001               0.0002    A(PC) =   0.0000
             ----------           ----------           ----------
 A(Tot)         -0.4764              -0.5052               0.8289    A(iso)=   -0.0509
 Orientation: 
  X           0.0039735            0.7609548            0.6487927
  Y           0.3870400            0.5970613           -0.7026506
  Z          -0.9220544            0.2539007           -0.2921475

Notes:  (1) The A matrix conforms to the "SAI" spin Hamiltonian convention.
        (2) Tensor is right-handed.

 Raw EFG matrix (all values in a.u.**-3):
 -----------------------------------
            -0.0893       0.0597      -0.1261
             0.0597      -0.0765      -0.1385
            -0.1261      -0.1385       0.1658

 V(El)       0.6124       0.4441      -1.0565
 V(Nuc)     -0.7505      -0.5871       1.3377
         ----------   ----------   ----------
 V(Tot)     -0.1382      -0.1430       0.2812 
 Orientation: 
  X       0.4668973    0.8110617    0.3524001
  Y       0.7155211   -0.5806601    0.3884115
  Z       0.5196504    0.0708014   -0.8514403

Note: Tensor is right-handed


 Quadrupole tensor eigenvalues (in MHz;Q= 0.0029 I=  1.0)
  e**2qQ            =     0.188836 MHz 
  e**2qQ/(4I*(2I-1))=     0.047209 MHz 
  eta               =     0.017169
  NOTE: the diagonal representation of the SH term I*Q*I = e**2qQ/(4I(2I-1))*[-(1-eta),-(1+eta),2]

 RHO(0)=      0.439454068 a.u.**-3

 -----------------------------------------------------------
 Nucleus  31H : A:ISTP=    1 I=  0.5 P=533.5514 MHz/au**3
                Q:ISTP=    2 I=  1.0 Q=  0.0029 barn     
 -----------------------------------------------------------
 Solving for nuclear perturbation:
Forming RHS of the CP-SCF equations         ... 
Calc. nucleus orbit integrals (SHARK)       ... done

------------------------------------------------------------------------------
                           ORCA CP-SCF CALCULATION
------------------------------------------------------------------------------

Input orbitals are from        ... input_9.gbw
Input Perturbation             ... input_9.pin.tmp
Wavefunction output            ... input_9.pout.tmp
Perturbation mode              ... Imaginary perturbation
Solver                         ... POPLE
Max. number of iterations      ... 64
Convergence tolerance          ... 1.000e-03
Integral handling              ... Direct
DFT GridXC                     ... 1
COSX GridX                     ... 1
COSX IntAccX                   ... 3.067
COSX Algorithm                 ... Auto
Number of perturbations        ... 3
Number of operators            ... 2
Orbital ranges used for CP-SCF:
 Operator 0:  Orbitals   0...116  to 117...516
 Operator 1:  Orbitals   0...115  to 116...516
Variables per perturbation     ... 93316
DFT calculation                         ... on
XC functional terms                     ... off
Hybrid DFT                              ... on
   Exchange mixing (SCF)                ...  0.200
   Exchange mixing (CP-SCF)             ...  0.200
   GGA exch. scaling(SCF)               ...  0.720
   GGA exch. scaling (CP-SCF)           ...  0.720
   GGA corr. scaling (SCF)              ...  0.810
   GGA corr. scaling (CP-SCF)           ...  0.810

CP-SCF GRID
-----------

General Integration Accuracy     IntAcc      ... 3.467
Radial Grid Type                 RadialGrid  ... OptM3 with GC (2021)
Angular Grid (max. ang.)         AngularGrid ... 1 (Lebedev-50)
Angular grid pruning method      GridPruning ... 4 (adaptive)
Weight generation scheme         WeightScheme... Becke
Basis function cutoff            BFCut       ... 1.0000e-10
Integration weight cutoff        WCut        ... 1.0000e-14
Angular grids for H and He will be reduced by one unit
Partially contracted basis set               ... off
Rotationally invariant grid construction     ... off

Total number of grid points                  ...    31447
Total number of batches                      ...      506
Average number of points per batch           ...       62
Average number of grid points per atom       ...      983

CP-SCF GRIDX
------------

General Integration Accuracy     IntAcc      ... 3.067
Radial Grid Type                 RadialGrid  ... OptM3 with GC (2021)
Angular Grid (max. ang.)         AngularGrid ... 1 (Lebedev-50)
Angular grid pruning method      GridPruning ... 4 (adaptive)
Weight generation scheme         WeightScheme... Becke
Basis function cutoff            BFCut       ... 1.0000e-10
Integration weight cutoff        WCut        ... 1.0000e-14
Angular grids for H and He will be reduced by one unit
Partially contracted basis set               ... on
Rotationally invariant grid construction     ... off

Total number of grid points                  ...    13988
Total number of batches                      ...      238
Average number of points per batch           ...       58
Average number of grid points per atom       ...      437

Memory available               ... 868.7 MB
Memory needed per perturbation ...  23.5 MB
Perturbations treated per batch... 3
Number of batches              ... 1
     CP-SCF ITERATION   0:   4.3961e-02 (   2.9 sec   0/  3 done)
     CP-SCF ITERATION   1:   1.2256e-03 (   2.9 sec   0/  3 done)
     CP-SCF ITERATION   2:   1.9695e-04 (   2.9 sec   3/  3 done)
                    *** THE CP-SCF HAS CONVERGED ***

Forming final perturbed densities           ... done
Transforming perturbed density to AO basis  ... done

 Raw HFC matrix (all values in MHz): 
 -----------------------------------
                 0.1429              -0.2932              -0.2104
                -0.2926              -0.0619               0.1570
                -0.2105               0.1576              -0.1502

 A(FC)          -0.0228              -0.0228              -0.0228
 A(SD)          -0.2379              -0.2521               0.4900
 A(ORB+DIA)      0.0015               0.0018              -0.0040    A(PC) =  -0.0002
 A(ORB)          0.0015               0.0018              -0.0041    A(PC) =  -0.0002
 A(DIA)         -0.0001              -0.0000               0.0001    A(PC) =  -0.0000
             ----------           ----------           ----------
 A(Tot)         -0.2593              -0.2732               0.4632    A(iso)=   -0.0231
 Orientation: 
  X          -0.5682761            0.3435721            0.7476767
  Y          -0.2091261            0.8185142           -0.5350708
  Z          -0.7958194           -0.4604267           -0.3932921

Notes:  (1) The A matrix conforms to the "SAI" spin Hamiltonian convention.
        (2) Tensor is right-handed.

 Raw EFG matrix (all values in a.u.**-3):
 -----------------------------------
             0.2632      -0.0889      -0.0214
            -0.0889      -0.1189       0.0077
            -0.0214       0.0077      -0.1443

 V(El)       0.5313       0.8234      -1.3546
 V(Nuc)     -0.6688      -0.9699       1.6387
         ----------   ----------   ----------
 V(Tot)     -0.1375      -0.1465       0.2841 
 Orientation: 
  X       0.2210114   -0.0248152    0.9749555
  Y       0.9149327   -0.3408913   -0.2160815
  Z       0.3377159    0.9397751   -0.0526366

Note: Tensor is right-handed


 Quadrupole tensor eigenvalues (in MHz;Q= 0.0029 I=  1.0)
  e**2qQ            =     0.190746 MHz 
  e**2qQ/(4I*(2I-1))=     0.047686 MHz 
  eta               =     0.031557
  NOTE: the diagonal representation of the SH term I*Q*I = e**2qQ/(4I(2I-1))*[-(1-eta),-(1+eta),2]

 RHO(0)=      0.442443245 a.u.**-3

 -----------------------------------------------------------
 Nucleus   0V : A:ISTP=   51 I=  3.5 P=140.5173 MHz/au**3
                Q:ISTP=   51 I=  3.5 Q= -0.0430 barn     
 -----------------------------------------------------------
 Solving for nuclear perturbation:
Forming RHS of the CP-SCF equations         ... 
Calc. nucleus orbit integrals (SHARK)       ... done

------------------------------------------------------------------------------
                           ORCA CP-SCF CALCULATION
------------------------------------------------------------------------------

Input orbitals are from        ... input_9.gbw
Input Perturbation             ... input_9.pin.tmp
Wavefunction output            ... input_9.pout.tmp
Perturbation mode              ... Imaginary perturbation
Solver                         ... POPLE
Max. number of iterations      ... 64
Convergence tolerance          ... 1.000e-03
Integral handling              ... Direct
DFT GridXC                     ... 1
COSX GridX                     ... 1
COSX IntAccX                   ... 3.067
COSX Algorithm                 ... Auto
Number of perturbations        ... 3
Number of operators            ... 2
Orbital ranges used for CP-SCF:
 Operator 0:  Orbitals   0...116  to 117...516
 Operator 1:  Orbitals   0...115  to 116...516
Variables per perturbation     ... 93316
DFT calculation                         ... on
XC functional terms                     ... off
Hybrid DFT                              ... on
   Exchange mixing (SCF)                ...  0.200
   Exchange mixing (CP-SCF)             ...  0.200
   GGA exch. scaling(SCF)               ...  0.720
   GGA exch. scaling (CP-SCF)           ...  0.720
   GGA corr. scaling (SCF)              ...  0.810
   GGA corr. scaling (CP-SCF)           ...  0.810

CP-SCF GRID
-----------

General Integration Accuracy     IntAcc      ... 3.467
Radial Grid Type                 RadialGrid  ... OptM3 with GC (2021)
Angular Grid (max. ang.)         AngularGrid ... 1 (Lebedev-50)
Angular grid pruning method      GridPruning ... 4 (adaptive)
Weight generation scheme         WeightScheme... Becke
Basis function cutoff            BFCut       ... 1.0000e-10
Integration weight cutoff        WCut        ... 1.0000e-14
Angular grids for H and He will be reduced by one unit
Partially contracted basis set               ... off
Rotationally invariant grid construction     ... off

Total number of grid points                  ...    31447
Total number of batches                      ...      506
Average number of points per batch           ...       62
Average number of grid points per atom       ...      983

CP-SCF GRIDX
------------

General Integration Accuracy     IntAcc      ... 3.067
Radial Grid Type                 RadialGrid  ... OptM3 with GC (2021)
Angular Grid (max. ang.)         AngularGrid ... 1 (Lebedev-50)
Angular grid pruning method      GridPruning ... 4 (adaptive)
Weight generation scheme         WeightScheme... Becke
Basis function cutoff            BFCut       ... 1.0000e-10
Integration weight cutoff        WCut        ... 1.0000e-14
Angular grids for H and He will be reduced by one unit
Partially contracted basis set               ... on
Rotationally invariant grid construction     ... off

Total number of grid points                  ...    13988
Total number of batches                      ...      238
Average number of points per batch           ...       58
Average number of grid points per atom       ...      437

Memory available               ... 867.1 MB
Memory needed per perturbation ...  23.5 MB
Perturbations treated per batch... 3
Number of batches              ... 1
     CP-SCF ITERATION   0:   1.2322e+01 (   3.1 sec   0/  3 done)
     CP-SCF ITERATION   1:   1.8344e+00 (   2.9 sec   0/  3 done)
     CP-SCF ITERATION   2:   3.2320e-01 (   2.9 sec   0/  3 done)
     CP-SCF ITERATION   3:   3.8322e-02 (   2.9 sec   0/  3 done)
     CP-SCF ITERATION   4:   7.0323e-03 (   2.9 sec   0/  3 done)
     CP-SCF ITERATION   5:   1.8868e-03 (   2.9 sec   0/  3 done)
     CP-SCF ITERATION   6:   3.2576e-04 (   2.9 sec   3/  3 done)
                    *** THE CP-SCF HAS CONVERGED ***

Forming final perturbed densities           ... done
Transforming perturbed density to AO basis  ... done

 Raw HFC matrix (all values in MHz): 
 -----------------------------------
               -75.7735              11.9477               3.0987
                11.9130            -350.4894              78.6950
                 3.0798              78.6536            -103.1230

 A(FC)        -165.3638            -165.3638            -165.3638
 A(SD)         100.8151              88.4737            -189.2888
 A(ORB+DIA)     -6.5176              -7.6617             -19.1153    A(PC) = -11.0982
 A(ORB)         -6.5172              -7.6621             -19.1152    A(PC) = -11.0982
 A(DIA)         -0.0004               0.0005              -0.0001    A(PC) =  -0.0000
             ----------           ----------           ----------
 A(Tot)        -71.0662             -84.5518            -373.7678    A(iso)= -176.4619
 Orientation: 
  X           0.8226311           -0.5674610            0.0355823
  Y           0.1864473            0.2101074           -0.9597355
  Z           0.5371364            0.7961425            0.2786424

Notes:  (1) The A matrix conforms to the "SAI" spin Hamiltonian convention.
        (2) Tensor is right-handed.

 Raw EFG matrix (all values in a.u.**-3):
 -----------------------------------
            -0.0066      -0.0113       0.0046
            -0.0113       0.2578      -0.1570
             0.0046      -0.1570      -0.2512

 V(El)       0.1098      -0.4400       0.3302
 V(Nuc)     -0.1169       0.1443      -0.0274
         ----------   ----------   ----------
 V(Tot)     -0.0071      -0.2957       0.3028 
 Orientation: 
  X       0.9992237    0.0045788   -0.0391284
  Y       0.0388925   -0.2728396    0.9612731
  Z      -0.0062743   -0.9620486   -0.2728059

Note: Tensor is right-handed


 Quadrupole tensor eigenvalues (in MHz;Q=-0.0430 I=  3.5)
  e**2qQ            =    -3.059254 MHz 
  e**2qQ/(4I*(2I-1))=    -0.036420 MHz 
  eta               =     0.953251
  NOTE: the diagonal representation of the SH term I*Q*I = e**2qQ/(4I(2I-1))*[-(1-eta),-(1+eta),2]

 RHO(0)=   8115.217290754 a.u.**-3


--------------------------------------------------------------------------------
----------------------------------------------------------------------------
                           ORCA EULER ANGLE PROGRAM
----------------------------------------------------------------------------

Only g-tensor available        -->  using g-tensor as reference tensor

Reference tensor               ...  g

g-tensor ordering              ...  |g_min> --> |gx>
                                    |g_mid> --> |gy>
                                    |g_max> --> |gz>

A- and EFG-tensor ordering     ...  the axes |Ax>, |Qx>, |Ay>, etc. are assigned
                                    such that the Euler rotation is minimal. You
                                    can find the respective eigenvalues as Ax,
                                    EFGx, Ay, etc. in the tables below.
                                    The relation of |Ax>, |Ay>,  etc. to Amin, Amid, etc.
                                    (as printed in the ORCA EPR/NMR CALCULATION Output)
                                    is obtained in the detailed printout.

Euler rotation around          ...  z - y - z
   First rotation              -->  by alpha around z
   Second rotation             -->  by beta around y'
   Third rotation              -->  by gamma around z''
   Positive / Negative angle   -->  clockwise / counterclockwise rotation

Plot EFG-tensors                    (-)
Plot HFC-tensors                    (-)
Detailed Printout                   (-)

-------------------------------------------------------------------------
          Euler rotation of hyperfine tensor to g-tensor
-------------------------------------------------------------------------

-------------------------------------------------------------------
 Atom  |   Alpha    Beta    Gamma   |   Ax       Ay       Az 
       |          [degrees]         |           [MHz]         
-------------------------------------------------------------------
 19H       29.7     30.6     13.2      -0.48     0.83    -0.50
 20H      123.1     21.7    -98.3      -0.28     0.46    -0.26
 21H       -8.3      5.1     40.9      -0.12     0.46    -0.13
 22H      -56.4      1.6     75.0      -0.22     0.45    -0.22
 23H      -70.2     21.4     98.2      -0.27     0.53    -0.26
 24H     -132.1     19.1    174.5      -0.51     0.98    -0.55
 26H     -107.4     21.3     78.9      -0.27     0.54    -0.25
 27H      -49.9     18.8      7.2      -0.51     0.98    -0.55
 28H      -78.2      1.4     59.1      -0.22     0.45    -0.22
 29H     -170.8      5.5    137.7      -0.12     0.47    -0.12
 30H      149.0     29.0    167.8      -0.48     0.83    -0.51
 31H       58.4     21.3    -83.8      -0.27     0.46    -0.26
  0V       88.1      0.3    -88.5    -373.77   -84.55   -71.07
-------------------------------------------------------------------


-------------------------------------------------------------------------------
    Euler rotation of Electric Field Gradient (EFG) tensor to g-tensor
-------------------------------------------------------------------------------

-------------------------------------------------------------------
 Atom  |   Alpha    Beta    Gamma  |   EFGx     EFGy     EFGz
       |          [degrees]        |         [a.u.**-3]       
-------------------------------------------------------------------
 19H       -8.8     37.2    -29.9     -0.14     0.28    -0.14
 20H     -141.5     42.4    109.3     -0.14    -0.15     0.28
 21H     -103.0      2.8     83.8      0.28    -0.14    -0.14
 22H     -132.1      5.0     96.6     -0.15     0.28    -0.14
 23H       28.9     35.6    -57.6     -0.14    -0.15     0.28
 24H       -5.3     43.9    -27.6     -0.14     0.28    -0.14
 26H      150.5     35.5   -122.2     -0.14    -0.15     0.28
 27H     -175.1     43.5   -152.5     -0.14     0.28    -0.14
 28H      -44.7      5.0     79.8     -0.15     0.28    -0.14
 29H      -71.7      2.8     90.5      0.28    -0.14    -0.14
 30H     -171.4     37.3   -150.4     -0.14     0.28    -0.14
 31H      -38.1     42.5     69.9     -0.14    -0.15     0.28
  0V      -89.9     34.0     89.9      0.30    -0.30    -0.01
-------------------------------------------------------------------


Maximum memory used throughout the entire EPRNMR-calculation: 221.4 MB

Timings for individual modules:

Sum of individual times         ...     1667.966 sec (=  27.799 min)
GTO integral calculation        ...        1.333 sec (=   0.022 min)   0.1 %
Spin-Orbit-Coupling Matrices    ...        6.822 sec (=   0.114 min)   0.4 %
SCF iterations                  ...      126.864 sec (=   2.114 min)   7.6 %
EPR/NMR calculation             ...     1532.947 sec (=  25.549 min)  91.9 %
                             ****ORCA TERMINATED NORMALLY****
TOTAL RUN TIME: 0 days 0 hours 27 minutes 49 seconds 208 msec
