
                                 *****************
                                 * O   R   C   A *
                                 *****************

                                            #,                                       
                                            ###                                      
                                            ####                                     
                                            #####                                    
                                            ######                                   
                                           ########,                                 
                                     ,,################,,,,,                         
                               ,,#################################,,                 
                          ,,##########################################,,             
                       ,#########################################, ''#####,          
                    ,#############################################,,   '####,        
                  ,##################################################,,,,####,       
                ,###########''''           ''''###############################       
              ,#####''   ,,,,##########,,,,          '''####'''          '####       
            ,##' ,,,,###########################,,,                        '##       
           ' ,,###''''                  '''############,,,                           
         ,,##''                                '''############,,,,        ,,,,,,###''
      ,#''                                            '''#######################'''  
     '                                                          ''''####''''         
             ,#######,   #######,   ,#######,      ##                                
            ,#'     '#,  ##    ##  ,#'     '#,    #''#        ######   ,####,        
            ##       ##  ##   ,#'  ##            #'  '#       #        #'  '#        
            ##       ##  #######   ##           ,######,      #####,   #    #        
            '#,     ,#'  ##    ##  '#,     ,#' ,#      #,         ##   #,  ,#        
             '#######'   ##     ##  '#######'  #'      '#     #####' # '####'        



                  #######################################################
                  #                        -***-                        #
                  #          Department of theory and spectroscopy      #
                  #    Directorship and core code : Frank Neese         #
                  #        Max Planck Institute fuer Kohlenforschung    #
                  #                Kaiser Wilhelm Platz 1               #
                  #                 D-45470 Muelheim/Ruhr               #
                  #                      Germany                        #
                  #                                                     #
                  #                  All rights reserved                #
                  #                        -***-                        #
                  #######################################################


                         Program Version 5.0.4 -  RELEASE  -


 With contributions from (in alphabetic order):
   Daniel Aravena         : Magnetic Suceptibility
   Michael Atanasov       : Ab Initio Ligand Field Theory (pilot matlab implementation)
   Alexander A. Auer      : GIAO ZORA, VPT2 properties, NMR spectrum
   Ute Becker             : Parallelization
   Giovanni Bistoni       : ED, misc. LED, open-shell LED, HFLD
   Martin Brehm           : Molecular dynamics
   Dmytro Bykov           : SCF Hessian
   Vijay G. Chilkuri      : MRCI spin determinant printing, contributions to CSF-ICE
   Dipayan Datta          : RHF DLPNO-CCSD density
   Achintya Kumar Dutta   : EOM-CC, STEOM-CC
   Dmitry Ganyushin       : Spin-Orbit,Spin-Spin,Magnetic field MRCI
   Miquel Garcia          : C-PCM and meta-GGA Hessian, CC/C-PCM, Gaussian charge scheme
   Yang Guo               : DLPNO-NEVPT2, F12-NEVPT2, CIM, IAO-localization
   Andreas Hansen         : Spin unrestricted coupled pair/coupled cluster methods
   Benjamin Helmich-Paris : MC-RPA, TRAH-SCF, COSX integrals
   Lee Huntington         : MR-EOM, pCC
   Robert Izsak           : Overlap fitted RIJCOSX, COSX-SCS-MP3, EOM
   Marcus Kettner         : VPT2
   Christian Kollmar      : KDIIS, OOCD, Brueckner-CCSD(T), CCSD density, CASPT2, CASPT2-K
   Simone Kossmann        : Meta GGA functionals, TD-DFT gradient, OOMP2, MP2 Hessian
   Martin Krupicka        : Initial AUTO-CI
   Lucas Lang             : DCDCAS
   Marvin Lechner         : AUTO-CI (C++ implementation), FIC-MRCC
   Dagmar Lenk            : GEPOL surface, SMD
   Dimitrios Liakos       : Extrapolation schemes; Compound Job, initial MDCI parallelization
   Dimitrios Manganas     : Further ROCIS development; embedding schemes
   Dimitrios Pantazis     : SARC Basis sets
   Anastasios Papadopoulos: AUTO-CI, single reference methods and gradients
   Taras Petrenko         : DFT Hessian,TD-DFT gradient, ASA, ECA, R-Raman, ABS, FL, XAS/XES, NRVS
   Peter Pinski           : DLPNO-MP2, DLPNO-MP2 Gradient
   Christoph Reimann      : Effective Core Potentials
   Marius Retegan         : Local ZFS, SOC
   Christoph Riplinger    : Optimizer, TS searches, QM/MM, DLPNO-CCSD(T), (RO)-DLPNO pert. Triples
   Tobias Risthaus        : Range-separated hybrids, TD-DFT gradient, RPA, STAB
   Michael Roemelt        : Original ROCIS implementation
   Masaaki Saitow         : Open-shell DLPNO-CCSD energy and density
   Barbara Sandhoefer     : DKH picture change effects
   Avijit Sen             : IP-ROCIS
   Kantharuban Sivalingam : CASSCF convergence, NEVPT2, FIC-MRCI
   Bernardo de Souza      : ESD, SOC TD-DFT
   Georgi Stoychev        : AutoAux, RI-MP2 NMR, DLPNO-MP2 response
   Willem Van den Heuvel  : Paramagnetic NMR
   Boris Wezisla          : Elementary symmetry handling
   Frank Wennmohs         : Technical directorship


 We gratefully acknowledge several colleagues who have allowed us to
 interface, adapt or use parts of their codes:
   Stefan Grimme, W. Hujo, H. Kruse, P. Pracht,  : VdW corrections, initial TS optimization,
                  C. Bannwarth, S. Ehlert          DFT functionals, gCP, sTDA/sTD-DF
   Ed Valeev, F. Pavosevic, A. Kumar             : LibInt (2-el integral package), F12 methods
   Garnet Chan, S. Sharma, J. Yang, R. Olivares  : DMRG
   Ulf Ekstrom                                   : XCFun DFT Library
   Mihaly Kallay                                 : mrcc  (arbitrary order and MRCC methods)
   Jiri Pittner, Ondrej Demel                    : Mk-CCSD
   Frank Weinhold                                : gennbo (NPA and NBO analysis)
   Christopher J. Cramer and Donald G. Truhlar   : smd solvation model
   Lars Goerigk                                  : TD-DFT with DH, B97 family of functionals
   V. Asgeirsson, H. Jonsson                     : NEB implementation
   FAccTs GmbH                                   : IRC, NEB, NEB-TS, DLPNO-Multilevel, CI-OPT
                                                   MM, QMMM, 2- and 3-layer-ONIOM, Crystal-QMMM,
                                                   LR-CPCM, SF, NACMEs, symmetry and pop. for TD-DFT,
                                                   nearIR, NL-DFT gradient (VV10), updates on ESD,
                                                   ML-optimized integration grids
   S Lehtola, MJT Oliveira, MAL Marques          : LibXC Library
   Liviu Ungur et al                             : ANISO software


 Your calculation uses the libint2 library for the computation of 2-el integrals
 For citations please refer to: http://libint.valeyev.net

 Your ORCA version has been built with support for libXC version: 5.1.0
 For citations please refer to: https://tddft.org/programs/libxc/

 This ORCA versions uses:
   CBLAS   interface :  Fast vector & matrix operations
   LAPACKE interface :  Fast linear algebra routines
   SCALAPACK package :  Parallel linear algebra routines
   Shared memory     :  Shared parallel matrices
   BLAS/LAPACK       :  OpenBLAS 0.3.15  USE64BITINT DYNAMIC_ARCH NO_AFFINITY Prescott SINGLE_THREADED
        Core in use  :  Prescott
   Copyright (c) 2011-2014, The OpenBLAS Project


================================================================================

----- Orbital basis set information -----
Your calculation utilizes the basis: TZVP 

The basis set includes element-specific modifications.

Your calculation utilizes the basis: CP(PPP) 

----- AuxJ basis set information -----
Your calculation utilizes the auxiliary basis: def2/J
   F. Weigend, Phys. Chem. Chem. Phys. 8, 1057 (2006).

================================================================================
                                        WARNINGS
                       Please study these warnings very carefully!
================================================================================


WARNING: your system is open-shell and RHF/RKS was chosen
  ===> : WILL SWITCH to UHF/UKS


INFO   : the flag for use of the SHARK integral package has been found!

================================================================================
                                       INPUT FILE
================================================================================
NAME = input_79.inp
|  1> ! nofrozencore ReducedPop printbasis
|  2> ! B3LYP TZVP
|  3> 
|  4> %basis
|  5> newgto V "CP(PPP)" end
|  6> end
|  7> 
|  8> %pal
|  9> nprocs 8
| 10> end
| 11> 
| 12> % sym SymThresh 1e-2 end
| 13> * xyz -2 2 
| 14> V 1.0984109786577323 0.17840157313179514 0.07602257180116663
| 15> S 0.12731282185099108 2.045113566626813 -1.1800897046349028
| 16> S 0.03351645467173534 1.1778326564644892 2.0419304457052503
| 17> S 0.6772973262059293 -1.0640816462840181 -1.992293182602599
| 18> S 0.6140986092297106 -1.926939780316474 1.2338246101521213
| 19> O 2.670311500477866 0.4381598729022041 0.18091629412513258
| 20> C -0.0027034278781594857 -0.13517242459403453 3.2256006186603567
| 21> C 0.2380014828344819 -1.4297793779272026 2.8881628831324053
| 22> C 0.16581026999186338 1.4942329028566945 -2.8594132227956632
| 23> C 0.3952230951915961 0.19776020201345695 -3.198418218033372
| 24> S -0.4130652490946254 0.37341822066412433 4.907204195889187
| 25> S 0.16682219044391497 -2.7773753714497644 4.0857235594080255
| 26> S 0.3982940912742441 -0.37616283777747733 -4.908843692014976
| 27> S -0.15894050473545973 2.77851753100267 -4.08473124547139
| 28> C -1.624872489946939 -2.8432584891350623 4.530621289141704
| 29> C -1.3673942136630046 -0.18012597616931525 -5.415433532224634
| 30> C -2.0781517463196373 -0.3797025241092427 5.1751496351691815
| 31> C -1.8035403784192015 2.292138485443998 -4.770594089996341
| 32> C -2.0832081186704583 -1.8470934975600033 5.590632148967148
| 33> H -2.6482663323733817 -0.22853549243462973 4.263439996887643
| 34> H -2.5302859376504987 0.22044406440329353 5.951147867659019
| 35> H -3.247034829322355 -2.142186061194466 5.90016760611516
| 36> H -1.4666183887223136 -1.9747371132963891 6.512325098953323
| 37> H -1.784044097417002 -3.8512066001975 4.884742611739002
| 38> H -2.187428846568143 -2.721840838446715 3.609777545333125
| 39> C -1.7527372369943572 1.2225500400895235 -5.84466909370817
| 40> H -2.203805303821542 3.1743274522654885 -5.153296266963093
| 41> H -2.411730420332951 1.9881749131497972 -3.945127878177771
| 42> H -1.0679231100414073 1.5749439058082542 -6.732992453813306
| 43> H -3.249450451407001 1.1192782580420235 -6.460299627900803
| 44> H -1.9687608607292055 -0.5169415671247554 -4.597657962878317
| 45> H -1.4952709989682407 -0.8504440263965193 -6.2023690658654775
| 46> * 
| 47> 
| 48> % eprnmr
| 49> gtensor true
| 50> Nuclei = all H {aiso,adip,aorb,fgrad,rho}
| 51> Nuclei = all V {aiso,adip,aorb,fgrad,rho}
| 52> end
| 53> 
| 54>                          ****END OF INPUT****
================================================================================

------------------------------------------------------------------------------
                            SYMMETRY HANDLING SETUP
------------------------------------------------------------------------------

------------------
SYMMETRY DETECTION
------------------
The point group will now be determined using a tolerance of 1.0000e-02.
Splitting atom subsets according to nuclear charge, mass and basis set.
Splitting atom subsets according to distance from the molecule's center.
Identifying relative distance patterns of the atoms.
Splitting atom subsets according to atoms' relative distance patterns.
Bring atoms of each subset into input order.
The molecule is neither linear nor planar.

WARNING (ORCA_SYM): A non-planar off-center atom subset has been encountered
in function TSymmetryFinder::FilterSubsetShapes() which cannot occur under
regular conditions. The full point group may not be assigned correctly. If the
symmetry appears to be too low, please try increasing the cleaning tolerance
using option SymThresh in the %symmetry input block. If the problem persists,
you may post a message in the ORCA forum.
There is at least one atom subset not centered around the molecule's center.
The molecule does not have a center of inversion.
Analyzing the first atom subset for its symmetry.
The atom subset represents a 4-gon with alternating side lengths
that is not centered around the molecule's center.
Testing point group C2v.
Test failed.
Testing point group C2.
Test failed.
Testing point group Cs.
Test failed.
Testing point group Cs.
Test failed.
No testing is needed for point group C1.
This point group has been found:    C1
Largest non-degenerate subgroup:    C1


Mass-centered symmetry-perfected Cartesians (point group C1):

Atom          Symmetry-perfected Cartesians (x, y, z; au)
  0       2.077893278672    0.337459694220    0.143965739623
  1       0.242783713152    3.865034132832   -2.229742456298
  2       0.065534266826    2.226110731447    3.858993225821
  3       1.282103804283   -2.010493316469   -3.764584594675
  4       1.162675537183   -3.641058882216    2.331894509402
  5       5.048354774680    0.828331741799    0.342186147982
  6      -0.002911391796   -0.255109284201    6.095805685597
  7       0.451954968541   -2.701561877071    5.458140778199
  8       0.315533346993    2.824020545833   -5.403203995875
  9       0.749060758229    0.374042201134   -6.043830594906
 10      -0.778382849712    0.705987749611    9.273575912382
 11       0.317445599516   -5.248149243998    7.721202485113
 12       0.754864099784   -0.710515166018   -9.276066313213
 13      -0.298156679021    5.250966771034   -7.718719485690
 14      -3.068366662026   -5.372650293272    8.561937351913
 15      -2.581803234415   -0.340059185425  -10.233382373436
 16      -3.924940318758   -0.717204203785    9.779919411454
 17      -3.406000040164    4.331843577650   -9.014812427274
 18      -3.934495477732   -3.490171274995   10.565067575966
 19      -5.002300751353   -0.431539913442    8.057037881446
 20      -4.779350116155    0.416908488711   11.246343551267
 21      -6.133809228206   -4.047815404421   11.150004818713
 22      -2.769309751142   -3.731382751480   12.306814831005
 23      -3.369157408440   -7.277396180383    9.231129669804
 24      -4.131444110937   -5.143204185647    6.821794863980
 25      -3.309996016129    2.310614339924  -11.044520031580
 26      -4.162391130189    5.998939123310   -9.738014732597
 27      -4.555312656760    3.757435671326   -7.454907354132
 28      -2.015884863547    2.976542237406  -12.723207900544
 29      -6.138374092389    2.115458954492  -12.207893140884
 30      -3.718221503445   -0.976548409966   -8.688010508360
 31      -2.823455337528   -1.606776722979  -11.720475017069


------------------
SYMMETRY REDUCTION
------------------
ORCA supports only abelian point groups.
It is now checked, if the determined point group is supported:
Point Group ( C1    ) is          ... supported

The point group is C1 - hence turning off symmetry
If this is a round-off problem, please increase the symmetry
        detection tolerance (%method SymThresh)

Storing the symmetry object:
Symmetry file                     ... input_79.sym.tmp
Writing symmetry information      ... done

                       ****************************
                       * Single Point Calculation *
                       ****************************

---------------------------------
CARTESIAN COORDINATES (ANGSTROEM)
---------------------------------
  V      1.099574    0.178576    0.076183
  S      0.128476    2.045288   -1.179929
  S      0.034679    1.178007    2.042091
  S      0.678460   -1.063907   -1.992132
  S      0.615261   -1.926765    1.233985
  O      2.671474    0.438334    0.181077
  C     -0.001541   -0.134998    3.225761
  C      0.239164   -1.429605    2.888324
  C      0.166973    1.494407   -2.859252
  C      0.396386    0.197935   -3.198257
  S     -0.411902    0.373593    4.907365
  S      0.167985   -2.777201    4.085884
  S      0.399457   -0.375988   -4.908683
  S     -0.157778    2.778692   -4.084570
  C     -1.623710   -2.843084    4.530782
  C     -1.366231   -0.179952   -5.415273
  C     -2.076989   -0.379528    5.175310
  C     -1.802378    2.292313   -4.770433
  C     -2.082045   -1.846919    5.590793
  H     -2.647104   -0.228361    4.263601
  H     -2.529123    0.220618    5.951309
  H     -3.245872   -2.142012    5.900328
  H     -1.465456   -1.974563    6.512486
  H     -1.782881   -3.851032    4.884903
  H     -2.186266   -2.721666    3.609938
  C     -1.751574    1.222724   -5.844508
  H     -2.202643    3.174502   -5.153135
  H     -2.410568    1.988349   -3.944967
  H     -1.066760    1.575118   -6.732832
  H     -3.248288    1.119453   -6.460139
  H     -1.967598   -0.516767   -4.597497
  H     -1.494108   -0.850270   -6.202208

----------------------------
CARTESIAN COORDINATES (A.U.)
----------------------------
  NO LB      ZA    FRAG     MASS         X           Y           Z
   0 V    23.0000    0    50.940    2.077893    0.337460    0.143966
   1 S    16.0000    0    32.060    0.242784    3.865034   -2.229742
   2 S    16.0000    0    32.060    0.065534    2.226111    3.858993
   3 S    16.0000    0    32.060    1.282104   -2.010493   -3.764585
   4 S    16.0000    0    32.060    1.162676   -3.641059    2.331895
   5 O     8.0000    0    15.999    5.048355    0.828332    0.342186
   6 C     6.0000    0    12.011   -0.002911   -0.255109    6.095806
   7 C     6.0000    0    12.011    0.451955   -2.701562    5.458141
   8 C     6.0000    0    12.011    0.315533    2.824021   -5.403204
   9 C     6.0000    0    12.011    0.749061    0.374042   -6.043831
  10 S    16.0000    0    32.060   -0.778383    0.705988    9.273576
  11 S    16.0000    0    32.060    0.317446   -5.248149    7.721202
  12 S    16.0000    0    32.060    0.754864   -0.710515   -9.276066
  13 S    16.0000    0    32.060   -0.298157    5.250967   -7.718719
  14 C     6.0000    0    12.011   -3.068367   -5.372650    8.561937
  15 C     6.0000    0    12.011   -2.581803   -0.340059  -10.233382
  16 C     6.0000    0    12.011   -3.924940   -0.717204    9.779919
  17 C     6.0000    0    12.011   -3.406000    4.331844   -9.014812
  18 C     6.0000    0    12.011   -3.934495   -3.490171   10.565068
  19 H     1.0000    0     1.008   -5.002301   -0.431540    8.057038
  20 H     1.0000    0     1.008   -4.779350    0.416908   11.246344
  21 H     1.0000    0     1.008   -6.133809   -4.047815   11.150005
  22 H     1.0000    0     1.008   -2.769310   -3.731383   12.306815
  23 H     1.0000    0     1.008   -3.369157   -7.277396    9.231130
  24 H     1.0000    0     1.008   -4.131444   -5.143204    6.821795
  25 C     6.0000    0    12.011   -3.309996    2.310614  -11.044520
  26 H     1.0000    0     1.008   -4.162391    5.998939   -9.738015
  27 H     1.0000    0     1.008   -4.555313    3.757436   -7.454907
  28 H     1.0000    0     1.008   -2.015885    2.976542  -12.723208
  29 H     1.0000    0     1.008   -6.138374    2.115459  -12.207893
  30 H     1.0000    0     1.008   -3.718222   -0.976548   -8.688011
  31 H     1.0000    0     1.008   -2.823455   -1.606777  -11.720475

--------------------------------
INTERNAL COORDINATES (ANGSTROEM)
--------------------------------
 V      0   0   0     0.000000000000     0.00000000     0.00000000
 S      1   0   0     2.450604690240     0.00000000     0.00000000
 S      1   2   0     2.449011352817    85.88784458     0.00000000
 S      1   2   3     2.449292003565    83.42171612   145.67955520
 S      1   2   3     2.451025549791   144.89781875    72.41956068
 O      1   2   3     1.596667879611   107.44982872   252.41658240
 C      3   1   2     1.768154207393   104.07803389   161.62005050
 C      7   3   1     1.359341841855   122.50787615   346.57848149
 C      2   1   3     1.767789308113   103.94079542   198.78531390
 C      9   2   1     1.359557315891   122.52773000    13.70725493
 S      7   3   1     1.804120799643   114.79026966   167.64238148
 S      8   7   3     1.804226434455   122.65558466   181.36697057
 S     10   9   2     1.804148660356   122.68606350   178.57139661
 S      9   2   1     1.804509442611   114.79340619   192.41816894
 C     12   8   7     1.847280271875   102.98880333    67.12952973
 C     13  10   9     1.847354570056   102.97903719   292.61590939
 C     11   7   3     1.847024271059   103.02190949   111.48051482
 C     14   9   2     1.847073675298   103.00106330   248.71714061
 C     17  11   7     1.525086081222   115.77466911    82.49899048
 H     17  11   7     1.085862135463   107.14254654   317.86015380
 H     17  11   7     1.080173371039   104.77455747   203.49181399
 H     19  17  11     1.239913074683   107.46443932   171.22014797
 H     19  17  11     1.116240870856   109.45973386    55.86754819
 H     15  12   8     1.080137447891   104.78355540   156.35539716
 H     15  12   8     1.085893687607   107.11250331    41.99947538
 C     16  13  10     1.516651713301   114.74594968    82.18455604
 H     18  14   9     1.041599894366   104.80688540   156.50879292
 H     18  14   9     1.069431366297   107.13310811    42.14879608
 H     26  16  13     1.175699883975   110.06295137    57.26299021
 H     26  16  13     1.621670885783   106.44177340   171.29851942
 H     16  13  10     1.069506179661   107.11725617   317.97288253
 H     16  13  10     1.041607553154   104.84631259   203.58868095

---------------------------
INTERNAL COORDINATES (A.U.)
---------------------------
 V      0   0   0     0.000000000000     0.00000000     0.00000000
 S      1   0   0     4.630971727056     0.00000000     0.00000000
 S      1   2   0     4.627960755688    85.88784458     0.00000000
 S      1   2   3     4.628491108741    83.42171612   145.67955520
 S      1   2   3     4.631767036349   144.89781875    72.41956068
 O      1   2   3     3.017265019293   107.44982872   252.41658240
 C      3   1   2     3.341327214513   104.07803389   161.62005050
 C      7   3   1     2.568783803486   122.50787615   346.57848149
 C      2   1   3     3.340637654807   103.94079542   198.78531390
 C      9   2   1     2.569190990404   122.52773000    13.70725493
 S      7   3   1     3.409294223837   114.79026966   167.64238148
 S      8   7   3     3.409493844701   122.65558466   181.36697057
 S     10   9   2     3.409346872954   122.68606350   178.57139661
 S      9   2   1     3.410028652610   114.79340619   192.41816894
 C     12   8   7     3.490853806440   102.98880333    67.12952973
 C     13  10   9     3.490994209653   102.97903719   292.61590939
 C     11   7   3     3.490370035007   103.02190949   111.48051482
 C     14   9   2     3.490463395489   103.00106330   248.71714061
 C     17  11   7     2.881995024165   115.77466911    82.49899048
 H     17  11   7     2.051982055220   107.14254654   317.86015380
 H     17  11   7     2.041231848418   104.77455747   203.49181399
 H     19  17  11     2.343096141020   107.46443932   171.22014797
 H     19  17  11     2.109389545408   109.45973386    55.86754819
 H     15  12   8     2.041163963507   104.78355540   156.35539716
 H     15  12   8     2.052041680131   107.11250331    41.99947538
 C     16  13  10     2.866056378682   114.74594968    82.18455604
 H     18  14   9     1.968338541474   104.80688540   156.50879292
 H     18  14   9     2.020932401326   107.13310811    42.14879608
 H     26  16  13     2.221750796396   110.06295137    57.26299021
 H     26  16  13     3.064513853483   106.44177340   171.29851942
 H     16  13  10     2.021073778096   107.11725617   317.97288253
 H     16  13  10     1.968353014484   104.84631259   203.58868095

---------------------
BASIS SET INFORMATION
---------------------
There are 5 groups of distinct atoms

 Group   1 Type V   : 17s11p5d1f contracted to 17s7p3d1f pattern {11111111111111111/3311111/311/1}
 Group   2 Type S   : 14s9p1d contracted to 5s4p1d pattern {73211/6111/1}
 Group   3 Type O   : 11s6p1d contracted to 5s3p1d pattern {62111/411/1}
 Group   4 Type C   : 11s6p1d contracted to 5s3p1d pattern {62111/411/1}
 Group   5 Type H   : 5s1p contracted to 3s1p pattern {311/1}

Atom   0V    basis set group =>   1
Atom   1S    basis set group =>   2
Atom   2S    basis set group =>   2
Atom   3S    basis set group =>   2
Atom   4S    basis set group =>   2
Atom   5O    basis set group =>   3
Atom   6C    basis set group =>   4
Atom   7C    basis set group =>   4
Atom   8C    basis set group =>   4
Atom   9C    basis set group =>   4
Atom  10S    basis set group =>   2
Atom  11S    basis set group =>   2
Atom  12S    basis set group =>   2
Atom  13S    basis set group =>   2
Atom  14C    basis set group =>   4
Atom  15C    basis set group =>   4
Atom  16C    basis set group =>   4
Atom  17C    basis set group =>   4
Atom  18C    basis set group =>   4
Atom  19H    basis set group =>   5
Atom  20H    basis set group =>   5
Atom  21H    basis set group =>   5
Atom  22H    basis set group =>   5
Atom  23H    basis set group =>   5
Atom  24H    basis set group =>   5
Atom  25C    basis set group =>   4
Atom  26H    basis set group =>   5
Atom  27H    basis set group =>   5
Atom  28H    basis set group =>   5
Atom  29H    basis set group =>   5
Atom  30H    basis set group =>   5
Atom  31H    basis set group =>   5

-------------------------
BASIS SET IN INPUT FORMAT
-------------------------

 # Basis set for element : H 
 NewGTO H 
 S 3 
   1      34.0613410000      0.0254393168
   2       5.1235746000      0.1900859340
   3       1.1646626000      0.8524411390
 S 1 
   1       0.3272304100      1.0000000000
 S 1 
   1       0.1030724100      1.0000000000
 P 1 
   1       0.8000000000      1.0000000000
  end;

 # Basis set for element : C 
 NewGTO C 
 S 6 
   1   13575.3496820000      0.0006064601
   2    2035.2333680000      0.0046978985
   3     463.2256235900      0.0243324735
   4     131.2001959800      0.0973999560
   5      42.8530158900      0.3019558443
   6      15.5841857700      0.6623361013
 S 2 
   1       6.2067138500      0.6559530795
   2       2.5764896500      0.3758563390
 S 1 
   1       0.5769633900      1.0000000000
 S 1 
   1       0.2297283100      1.0000000000
 S 1 
   1       0.0951644400      1.0000000000
 P 4 
   1      34.6972322400      0.0113272290
   2       7.9582622800      0.0761696612
   3       2.3780826900      0.3019225154
   4       0.8143320800      0.7278502776
 P 1 
   1       0.2888754700      1.0000000000
 P 1 
   1       0.1005682400      1.0000000000
 D 1 
   1       0.8000000000      1.0000000000
  end;

 # Basis set for element : O 
 NewGTO O 
 S 6 
   1   27032.3826310000      0.0005722654
   2    4052.3871392000      0.0044353333
   3     922.3272271000      0.0230201034
   4     261.2407098900      0.0928224938
   5      85.3546413500      0.2937849971
   6      31.0350352400      0.6740160462
 S 2 
   1      12.2608607300      0.6383993750
   2       4.9987076000      0.3953458663
 S 1 
   1       1.1703108200      1.0000000000
 S 1 
   1       0.4647474100      1.0000000000
 S 1 
   1       0.1850453600      1.0000000000
 P 4 
   1      63.2749548000      0.0120183316
   2      14.6270493800      0.0830054304
   3       4.4501223500      0.3199174388
   4       1.5275799600      0.7071554258
 P 1 
   1       0.5293511800      1.0000000000
 P 1 
   1       0.1747842100      1.0000000000
 D 1 
   1       1.2000000000      1.0000000000
  end;

 # Basis set for element : S 
 NewGTO S 
 S 7 
   1   60700.9281040000      0.0005238013
   2    9102.6106854000      0.0040506304
   3    2071.4166009000      0.0208270003
   4     586.0247682100      0.0814968475
   5     190.5539502100      0.2374911358
   6      67.6303842600      0.4472617145
   7      25.1273069100      0.3489191913
 S 3 
   1     112.5746301000      0.1004556993
   2      34.7955542200      0.4339117282
   3       6.5115556200     -1.2084330582
 S 2 
   1       3.2399032300      0.6749812922
   2       1.5477160900      0.3470879597
 S 1 
   1       0.4054103000      1.0000000000
 S 1 
   1       0.1455065100      1.0000000000
 P 6 
   1     564.3671602700      0.0025564845
   2     133.4262437900      0.0202874255
   3      42.4682711900      0.0927670112
   4      15.6165275800      0.2650208365
   5       6.1093988500      0.4486298663
   6       2.4404160200      0.3596369916
 P 1 
   1       0.8388220100      1.0000000000
 P 1 
   1       0.3128874700      1.0000000000
 P 1 
   1       0.1077010900      1.0000000000
 D 1 
   1       0.5500000000      1.0000000000
  end;

 # Basis set for element : V 
 NewGTO V 
 S 1 
   1  4239814.9912500000      1.0000000000
 S 1 
   1  1695925.9965000001      1.0000000000
 S 1 
   1  678370.3986000001      1.0000000000
 S 1 
   1  271348.1594400000      1.0000000000
 S 1 
   1   40672.0050780000      1.0000000000
 S 1 
   1    9257.0761385000      1.0000000000
 S 1 
   1    2622.7328773000      1.0000000000
 S 1 
   1     858.5948018500      1.0000000000
 S 1 
   1     314.1941865000      1.0000000000
 S 1 
   1     124.4786212700      1.0000000000
 S 1 
   1      50.4693993090      1.0000000000
 S 1 
   1      12.5138469110      1.0000000000
 S 1 
   1       5.3447758082      1.0000000000
 S 1 
   1       1.5755631295      1.0000000000
 S 1 
   1       0.6306903307      1.0000000000
 S 1 
   1       0.0879544416      1.0000000000
 S 1 
   1       0.0342969197      1.0000000000
 P 3 
   1    1450.0319327000     -0.0222847647
   2     343.7504988400     -0.1817959329
   3     110.8252170800     -0.8607412073
 P 3 
   1      41.8224645460     -0.2522537814
   2      17.0880737100     -0.4620379520
   3       7.2613218939     -0.3990010670
 P 1 
   1       2.9458145262      1.0000000000
 P 1 
   1       1.1650209680      1.0000000000
 P 1 
   1       0.4339937839      1.0000000000
 D 3 
   1      27.3603358640      0.0575501019
   2       7.4542765527      0.3023798347
   3       2.4632270217      0.7724212088
 D 1 
   1       0.8249954244      1.0000000000
 D 1 
   1       0.2526297057      1.0000000000
 P 1 
   1       0.1112480000      1.0000000000
 P 1 
   1       0.0363780000      1.0000000000
 F 1 
   1       1.8000000000      1.0000000000
  end;

---------------------------------
AUXILIARY/J BASIS SET INFORMATION
---------------------------------
There are 5 groups of distinct atoms

 Group   1 Type V   : 19s5p5d3f3g contracted to 8s5p5d2f3g pattern {121111111/11111/11111/21/111}
 Group   2 Type S   : 14s5p5d2f1g contracted to 8s4p3d1f1g pattern {71111111/2111/311/2/1}
 Group   3 Type O   : 12s5p4d2f1g contracted to 6s4p3d1f1g pattern {711111/2111/211/2/1}
 Group   4 Type C   : 12s5p4d2f1g contracted to 6s4p3d1f1g pattern {711111/2111/211/2/1}
 Group   5 Type H   : 5s2p1d contracted to 3s1p1d pattern {311/2/1}

Atom   0V    basis set group =>   1
Atom   1S    basis set group =>   2
Atom   2S    basis set group =>   2
Atom   3S    basis set group =>   2
Atom   4S    basis set group =>   2
Atom   5O    basis set group =>   3
Atom   6C    basis set group =>   4
Atom   7C    basis set group =>   4
Atom   8C    basis set group =>   4
Atom   9C    basis set group =>   4
Atom  10S    basis set group =>   2
Atom  11S    basis set group =>   2
Atom  12S    basis set group =>   2
Atom  13S    basis set group =>   2
Atom  14C    basis set group =>   4
Atom  15C    basis set group =>   4
Atom  16C    basis set group =>   4
Atom  17C    basis set group =>   4
Atom  18C    basis set group =>   4
Atom  19H    basis set group =>   5
Atom  20H    basis set group =>   5
Atom  21H    basis set group =>   5
Atom  22H    basis set group =>   5
Atom  23H    basis set group =>   5
Atom  24H    basis set group =>   5
Atom  25C    basis set group =>   4
Atom  26H    basis set group =>   5
Atom  27H    basis set group =>   5
Atom  28H    basis set group =>   5
Atom  29H    basis set group =>   5
Atom  30H    basis set group =>   5
Atom  31H    basis set group =>   5

-------------------------------------
AUXILIARY/J BASIS SET IN INPUT FORMAT
-------------------------------------

 # Auxiliary/J basis set for element : H 
 NewAuxJGTO H 
 S 3 
   1      15.6752927000      0.1007184237
   2       3.6063578000      0.3404257499
   3       1.2080016000      0.6491996172
 S 1 
   1       0.4726794000      1.0000000000
 S 1 
   1       0.2018100000      1.0000000000
 P 2 
   1       2.0281365000      0.5596620919
   2       0.5358730000      0.5596620919
 D 1 
   1       2.2165124000      1.0000000000
  end;

 # Auxiliary/J basis set for element : C 
 NewAuxJGTO C 
 S 7 
   1    1861.0916331000      0.0134602335
   2     642.9939764000      0.0299160374
   3     235.1105725000      0.1008649584
   4      90.7028894000      0.2370970548
   5      36.7794552000      0.3924037254
   6      15.6046273000      0.3195862154
   7       6.8907294000      0.0530104441
 S 1 
   1       3.1478850000     -1.0000000000
 S 1 
   1       1.4777287000      1.0000000000
 S 1 
   1       0.7076466000      1.0000000000
 S 1 
   1       0.3430122000      1.0000000000
 S 1 
   1       0.1669453000      1.0000000000
 P 2 
   1      13.5472892000     -0.6769313712
   2       5.4669419000     -0.3779500978
 P 1 
   1       2.1751721000      1.0000000000
 P 1 
   1       0.8582194000      1.0000000000
 P 1 
   1       0.3376720000      1.0000000000
 D 2 
   1       5.9287253000     -0.3533329857
   2       1.9809209000     -0.7456525731
 D 1 
   1       0.8055417000     -1.0000000000
 D 1 
   1       0.3531244000     -1.0000000000
 F 2 
   1       1.6755626000      0.6311076882
   2       0.5997536000      0.4968166032
 G 1 
   1       1.0024600000     -1.0000000000
  end;

 # Auxiliary/J basis set for element : O 
 NewAuxJGTO O 
 S 7 
   1    2876.8216605000      0.0168151159
   2    1004.7443032000      0.0340137548
   3     369.7579954000      0.1194951309
   4     142.9442404000      0.2664627624
   5      57.8366425000      0.4202764046
   6      24.3864983000      0.2765077335
   7      10.6622662000      0.0057008815
 S 1 
   1       4.8070437000     -1.0000000000
 S 1 
   1       2.2210770000      1.0000000000
 S 1 
   1       1.0447795000      1.0000000000
 S 1 
   1       0.4968425000      1.0000000000
 S 1 
   1       0.2371384000      1.0000000000
 P 2 
   1      64.2613382000     -0.2731534179
   2      16.3006076000     -0.8168011598
 P 1 
   1       4.3550542000      1.0000000000
 P 1 
   1       1.2019554000      1.0000000000
 P 1 
   1       0.3354196000      1.0000000000
 D 2 
   1       9.2146611000     -0.4661230638
   2       2.8435251000     -0.6600908911
 D 1 
   1       0.9955759000     -1.0000000000
 D 1 
   1       0.3649441000     -1.0000000000
 F 2 
   1       2.6420115000      0.5931563945
   2       0.7345613000      0.5931563945
 G 1 
   1       1.3931000000     -1.0000000000
  end;

 # Auxiliary/J basis set for element : S 
 NewAuxJGTO S 
 S 7 
   1    7399.0303145000      0.0295137551
   2    2710.1675859000      0.0559686311
   3    1034.3279062000      0.1764696370
   4     410.4645411000      0.3577969368
   5     168.9762502000      0.4299293578
   6      71.9687889000      0.1259148089
   7      31.6172683000     -0.0646025788
 S 1 
   1      14.2796836000      1.0000000000
 S 1 
   1       6.6060948000      1.0000000000
 S 1 
   1       3.1181477000      1.0000000000
 S 1 
   1       1.4954039000     -1.0000000000
 S 1 
   1       0.7254779000      1.0000000000
 S 1 
   1       0.3544216000      1.0000000000
 S 1 
   1       0.1735525000      1.0000000000
 P 2 
   1      12.6998799000      1.4059102813
   2       4.4295784000     -1.2124994202
 P 1 
   1       1.5232889000      1.0000000000
 P 1 
   1       0.5194667000     -1.0000000000
 P 1 
   1       0.1766547000     -1.0000000000
 D 3 
   1      16.8546461000      1.0295742104
   2       5.0810461000     -0.7461553923
   3       1.5102323000      0.8357028005
 D 1 
   1       0.4451331000      1.0000000000
 D 1 
   1       0.1308362000      1.0000000000
 F 2 
   1       1.0809860000      0.5572698934
   2       0.4161474000      0.5572698934
 G 1 
   1       0.6707100000     -1.0000000000
  end;

 # Auxiliary/J basis set for element : V 
 NewAuxJGTO V 
 S 12 
   1   11942.0842430000      0.0459866720
   2    2430.7110193000      0.1744615821
   3     841.0764301000      0.2900402792
   4     494.7508273000      0.1411212903
   5     291.0298903000      0.2660697186
   6     171.1940483000      0.0446365706
   7      59.2366916000     -0.0408204801
   8      34.8451117000      0.1394665381
   9      20.4971240000      0.2164746715
  10      12.0571314000      0.0864266611
  11       7.0924300000     -0.0568501658
  12       4.1720176000     -0.0126212852
 S 1 
   1       2.4541279000      1.0000000000
 S 1 
   1       1.4436046000      1.0000000000
 S 1 
   1       0.8491792000      1.0000000000
 S 1 
   1       0.2938336000      1.0000000000
 S 1 
   1       0.1728433000      1.0000000000
 S 1 
   1       0.1016725000      1.0000000000
 S 1 
   1       0.0598074000      1.0000000000
 P 1 
   1      16.7130979000     -1.0000000000
 P 1 
   1       4.7454037000     -1.0000000000
 P 1 
   1       1.3889998000      1.0000000000
 P 1 
   1       0.4142440000     -1.0000000000
 P 1 
   1       0.1243234000      1.0000000000
 D 1 
   1       7.7143225000      1.0000000000
 D 1 
   1       3.1170731000      1.0000000000
 D 1 
   1       1.2767950000     -1.0000000000
 D 1 
   1       0.5273386000      1.0000000000
 D 1 
   1       0.2184050000      1.0000000000
 F 2 
   1       3.1309344000     -1.0825667766
   2       1.0419780000      0.1809223232
 F 1 
   1       0.3559044000      1.0000000000
 G 1 
   1       8.7130110000      1.0000000000
 G 1 
   1       2.7493872000      1.0000000000
 G 1 
   1       0.8775089000      1.0000000000
  end;



           ************************************************************
           *        Program running with 8 parallel MPI-processes     *
           *              working on a common directory               *
           ************************************************************
------------------------------------------------------------------------------
                           ORCA GTO INTEGRAL CALCULATION
                           -- RI-GTO INTEGRALS CHOSEN --
------------------------------------------------------------------------------
------------------------------------------------------------------------------
                   ___                                                        
                  /   \      - P O W E R E D   B Y -                         
                 /     \                                                     
                 |  |  |   _    _      __       _____    __    __             
                 |  |  |  | |  | |    /  \     |  _  \  |  |  /  |          
                  \  \/   | |  | |   /    \    | | | |  |  | /  /          
                 / \  \   | |__| |  /  /\  \   | |_| |  |  |/  /          
                |  |  |   |  __  | /  /__\  \  |    /   |      \           
                |  |  |   | |  | | |   __   |  |    \   |  |\   \          
                \     /   | |  | | |  |  |  |  | |\  \  |  | \   \       
                 \___/    |_|  |_| |__|  |__|  |_| \__\ |__|  \__/        
                                                                              
                      - O R C A' S   B I G   F R I E N D -                    
                                      &                                       
                       - I N T E G R A L  F E E D E R -                       
                                                                              
 v1 FN, 2020, v2 2021                                                         
------------------------------------------------------------------------------


Reading SHARK input file input_79.SHARKINP.tmp ... ok
----------------------
SHARK INTEGRAL PACKAGE
----------------------

Number of atoms                             ...     32
Number of basis functions                   ...    517
Number of shells                            ...    255
Maximum angular momentum                    ...      3
Integral batch strategy                     ... SHARK/LIBINT Hybrid
RI-J (if used) integral strategy            ... SPLIT-RIJ (Revised 2003 algorithm where possible)
Printlevel                                  ...      1
Contraction scheme used                     ... SEGMENTED contraction
Coulomb Range Separation                    ... NOT USED
Exchange Range Separation                   ... NOT USED
Finite Nucleus Model                        ... NOT USED
Auxiliary Coulomb fitting basis             ... AVAILABLE
   # of basis functions in Aux-J            ...   1168
   # of shells in Aux-J                     ...    384
   Maximum angular momentum in Aux-J        ...      4
Auxiliary J/K fitting basis                 ... NOT available
Auxiliary Correlation fitting basis         ... NOT available
Auxiliary 'external' fitting basis          ... NOT available
Integral threshold                          ...     1.000000e-10
Primitive cut-off                           ...     1.000000e-11
Primitive pair pre-selection threshold      ...     1.000000e-11

Calculating pre-screening integrals         ... done (  0.1 sec) Dimension = 255
Organizing shell pair data                  ... done (  0.1 sec)
Shell pair information
Total number of shell pairs                 ...     32640
Shell pairs after pre-screening             ...     17821
Total number of primitive shell pairs       ...    123863
Primitive shell pairs kept                  ...     41633
          la=0 lb=0:   5375 shell pairs
          la=1 lb=0:   7060 shell pairs
          la=1 lb=1:   2300 shell pairs
          la=2 lb=0:   1678 shell pairs
          la=2 lb=1:   1116 shell pairs
          la=2 lb=2:    154 shell pairs
          la=3 lb=0:     73 shell pairs
          la=3 lb=1:     52 shell pairs
          la=3 lb=2:     12 shell pairs
          la=3 lb=3:      1 shell pairs

Calculating one electron integrals          ... done (  0.0 sec)
Calculating RI/J V-Matrix + Cholesky decomp.... done (  0.1 sec)
Calculating Nuclear repulsion               ... done (  0.0 sec) ENN=   3210.502926388036 Eh

SHARK setup successfully completed in   0.5 seconds

Maximum memory used throughout the entire GTOINT-calculation: 31.6 MB


           ************************************************************
           *        Program running with 8 parallel MPI-processes     *
           *              working on a common directory               *
           ************************************************************
-------------------------------------------------------------------------------
                                 ORCA SCF
-------------------------------------------------------------------------------

------------
SCF SETTINGS
------------
Hamiltonian:
 Density Functional     Method          .... DFT(GTOs)
 Exchange Functional    Exchange        .... B88
   X-Alpha parameter    XAlpha          ....  0.666667
   Becke's b parameter  XBeta           ....  0.004200
 Correlation Functional Correlation     .... LYP
 LDA part of GGA corr.  LDAOpt          .... VWN-5
 Gradients option       PostSCFGGA      .... off
 Hybrid DFT is turned on
   Fraction HF Exchange ScalHFX         ....  0.200000
   Scaling of DF-GGA-X  ScalDFX         ....  0.720000
   Scaling of DF-GGA-C  ScalDFC         ....  0.810000
   Scaling of DF-LDA-C  ScalLDAC        ....  1.000000
   Perturbative correction              ....  0.000000
   Density functional embedding theory  .... OFF
   NL short-range parameter             ....  4.800000
 RI-approximation to the Coulomb term is turned on
   Number of AuxJ basis functions       .... 1168
   RIJ-COSX (HFX calculated with COS-X)).... on


General Settings:
 Integral files         IntName         .... input_79
 Hartree-Fock type      HFTyp           .... UHF
 Total Charge           Charge          ....   -2
 Multiplicity           Mult            ....    2
 Number of Electrons    NEL             ....  233
 Basis Dimension        Dim             ....  517
 Nuclear Repulsion      ENuc            ....   3210.5029263880 Eh

Convergence Acceleration:
 DIIS                   CNVDIIS         .... on
   Start iteration      DIISMaxIt       ....    12
   Startup error        DIISStart       ....  0.200000
   # of expansion vecs  DIISMaxEq       ....     5
   Bias factor          DIISBfac        ....   1.050
   Max. coefficient     DIISMaxC        ....  10.000
 Trust-Rad. Augm. Hess. CNVTRAH         .... auto
   Auto Start mean grad. ratio tolernc. ....  1.125000
   Auto Start start iteration           ....    20
   Auto Start num. interpolation iter.  ....    10
   Max. Number of Micro iterations      ....    16
   Max. Number of Macro iterations      .... Maxiter - #DIIS iter
   Number of Davidson start vectors     ....     2
   Converg. threshold I  (grad. norm)   ....   5.000e-05
   Converg. threshold II (energy diff.) ....   1.000e-06
   Grad. Scal. Fac. for Micro threshold ....   0.100
   Minimum threshold for Micro iter.    ....   0.010
   NR start threshold (gradient norm)   ....   0.001
   Initial trust radius                 ....   0.400
   Minimum AH scaling param. (alpha)    ....   1.000
   Maximum AH scaling param. (alpha)    .... 1000.000
   Orbital update algorithm             .... Taylor
   White noise on init. David. guess    .... on
   Maximum white noise                  ....   0.010
   Quad. conv. algorithm                .... NR
 SOSCF                  CNVSOSCF        .... off
 Level Shifting         CNVShift        .... on
   Level shift para.    LevelShift      ....    0.2500
   Turn off err/grad.   ShiftErr        ....    0.0010
 Zerner damping         CNVZerner       .... off
 Static damping         CNVDamp         .... on
   Fraction old density DampFac         ....    0.7000
   Max. Damping (<1)    DampMax         ....    0.9800
   Min. Damping (>=0)   DampMin         ....    0.0000
   Turn off err/grad.   DampErr         ....    0.1000
 Fernandez-Rico         CNVRico         .... off

SCF Procedure:
 Maximum # iterations   MaxIter         ....   125
 SCF integral mode      SCFMode         .... Direct
   Integral package                     .... SHARK and LIBINT hybrid scheme
 Reset frequency        DirectResetFreq ....    20
 Integral Threshold     Thresh          ....  1.000e-10 Eh
 Primitive CutOff       TCut            ....  1.000e-11 Eh

Convergence Tolerance:
 Convergence Check Mode ConvCheckMode   .... Total+1el-Energy
 Convergence forced     ConvForced      .... 0
 Energy Change          TolE            ....  1.000e-06 Eh
 1-El. energy change                    ....  1.000e-03 Eh
 DIIS Error             TolErr          ....  1.000e-06


Diagonalization of the overlap matrix:
Smallest eigenvalue                        ... 1.812e-04
Time for diagonalization                   ...    0.109 sec
Threshold for overlap eigenvalues          ... 1.000e-08
Number of eigenvalues below threshold      ... 0
Time for construction of square roots      ...    0.096 sec
Total time needed                          ...    0.209 sec

Time for model grid setup =    0.268 sec

------------------------------
INITIAL GUESS: MODEL POTENTIAL
------------------------------
Loading Hartree-Fock densities                     ... done
Calculating cut-offs                               ... done
Initializing the effective Hamiltonian             ... done
Setting up the integral package (SHARK)            ... done
Starting the Coulomb interaction                   ... done (   0.2 sec)
Reading the grid                                   ... done
Mapping shells                                     ... done
Starting the XC term evaluation                    ... done (   0.1 sec)
  promolecular density results
     # of electrons  =    230.995901981
     EX              =   -307.500720031
     EC              =     -9.021454548
     EX+EC           =   -316.522174579
Transforming the Hamiltonian                       ... done (   0.1 sec)
Diagonalizing the Hamiltonian                      ... done (   0.1 sec)
Back transforming the eigenvectors                 ... done (   0.0 sec)
Now organizing SCF variables                       ... done
                      ------------------
                      INITIAL GUESS DONE (   0.8 sec)
                      ------------------
-------------------
DFT GRID GENERATION
-------------------

General Integration Accuracy     IntAcc      ... 4.388
Radial Grid Type                 RadialGrid  ... OptM3 with GC (2021)
Angular Grid (max. ang.)         AngularGrid ... 4 (Lebedev-302)
Angular grid pruning method      GridPruning ... 4 (adaptive)
Weight generation scheme         WeightScheme... Becke
Basis function cutoff            BFCut       ... 1.0000e-10
Integration weight cutoff        WCut        ... 1.0000e-14
Angular grids for H and He will be reduced by one unit
Partially contracted basis set               ... off
Rotationally invariant grid construction     ... off

Total number of grid points                  ...   184143
Total number of batches                      ...     2894
Average number of points per batch           ...       63
Average number of grid points per atom       ...     5754
Time for grid setup =    1.331 sec

--------------------
COSX GRID GENERATION
--------------------

GRIDX 1
-------
General Integration Accuracy     IntAcc      ... 3.816
Radial Grid Type                 RadialGrid  ... OptM3 with GC (2021)
Angular Grid (max. ang.)         AngularGrid ... 1 (Lebedev-50)
Angular grid pruning method      GridPruning ... 4 (adaptive)
Weight generation scheme         WeightScheme... Becke
Basis function cutoff            BFCut       ... 1.0000e-10
Integration weight cutoff        WCut        ... 1.0000e-14
Angular grids for H and He will be reduced by one unit
Partially contracted basis set               ... on
Rotationally invariant grid construction     ... off

Total number of grid points                  ...    22833
Total number of batches                      ...      376
Average number of points per batch           ...       60
Average number of grid points per atom       ...      714
UseSFitting                                  ... on

GRIDX 2
-------
General Integration Accuracy     IntAcc      ... 4.020
Radial Grid Type                 RadialGrid  ... OptM3 with GC (2021)
Angular Grid (max. ang.)         AngularGrid ... 2 (Lebedev-110)
Angular grid pruning method      GridPruning ... 4 (adaptive)
Weight generation scheme         WeightScheme... Becke
Basis function cutoff            BFCut       ... 1.0000e-10
Integration weight cutoff        WCut        ... 1.0000e-14
Angular grids for H and He will be reduced by one unit
Partially contracted basis set               ... on
Rotationally invariant grid construction     ... off

Total number of grid points                  ...    49188
Total number of batches                      ...      783
Average number of points per batch           ...       62
Average number of grid points per atom       ...     1537
UseSFitting                                  ... on

GRIDX 3
-------
General Integration Accuracy     IntAcc      ... 4.338
Radial Grid Type                 RadialGrid  ... OptM3 with GC (2021)
Angular Grid (max. ang.)         AngularGrid ... 3 (Lebedev-194)
Angular grid pruning method      GridPruning ... 4 (adaptive)
Weight generation scheme         WeightScheme... Becke
Basis function cutoff            BFCut       ... 1.0000e-10
Integration weight cutoff        WCut        ... 1.0000e-14
Angular grids for H and He will be reduced by one unit
Partially contracted basis set               ... on
Rotationally invariant grid construction     ... off

Total number of grid points                  ...   112129
Total number of batches                      ...     1770
Average number of points per batch           ...       63
Average number of grid points per atom       ...     3504
UseSFitting                                  ... on

Time for X-Grid setup             =    1.267 sec

--------------
SCF ITERATIONS
--------------
ITER       Energy         Delta-E        Max-DP      RMS-DP      [F,P]     Damp
               ***  Starting incremental Fock matrix formation  ***
  0  -4591.9363652000   0.000000000000 0.05801827  0.00088534  0.2349094 0.7000
  1  -4592.2245717341  -0.288206534154 0.09377224  0.00085663  0.1560084 0.7000
                               ***Turning on DIIS***
  2  -4592.3714308774  -0.146859143309 0.06596863  0.00052736  0.1091668 0.7000
  3  -4592.4517626924  -0.080331814932 0.08710280  0.00082463  0.0772195 0.0000
  4  -4592.6420165765  -0.190253884146 0.05995572  0.00047770  0.0142872 0.0000
  5  -4592.6479512998  -0.005934723306 0.01049070  0.00010249  0.0108482 0.0000
  6  -4592.6491003650  -0.001149065225 0.00265063  0.00004605  0.0033134 0.0000
  7  -4592.6493114768  -0.000211111803 0.00177777  0.00002262  0.0013259 0.0000
  8  -4592.6493789829  -0.000067506091 0.00115636  0.00001551  0.0011958 0.0000
  9  -4592.6494168943  -0.000037911364 0.00229567  0.00002252  0.0009619 0.0000
               *** Restarting incremental Fock matrix formation ***
                                   *** Resetting DIIS ***
 10  -4592.6494417954  -0.000024901095 0.00129069  0.00001431  0.0008339 0.0000
 11  -4592.6494162121   0.000025583262 0.00034774  0.00000380  0.0023658 0.0000
 12  -4592.6494482437  -0.000032031573 0.00039304  0.00000589  0.0009612 0.0000
 13  -4592.6494550043  -0.000006760651 0.00039193  0.00000384  0.0002999 0.0000
 14  -4592.6494572977  -0.000002293362 0.00026379  0.00000245  0.0002178 0.0000
 15  -4592.6494582311  -0.000000933354 0.00022851  0.00000205  0.0001374 0.0000
 16  -4592.6494584647  -0.000000233586 0.00018157  0.00000148  0.0000771 0.0000
 17  -4592.6494586674  -0.000000202784 0.00003517  0.00000057  0.0000186 0.0000
 18  -4592.6494585414   0.000000126053 0.00002840  0.00000042  0.0000183 0.0000
                 **** Energy Check signals convergence ****

               *****************************************************
               *                     SUCCESS                       *
               *           SCF CONVERGED AFTER  19 CYCLES          *
               *****************************************************

Old exchange energy                            =    -61.736605254 Eh
New exchange energy                            =    -61.736585267 Eh
Exchange energy change after final integration =      0.000019986 Eh
Total energy after final integration           =  -4592.649438670 Eh
Final COS-X integration done in                =    12.603 sec

----------------
TOTAL SCF ENERGY
----------------

Total Energy       :        -4592.64943867 Eh         -124972.34470 eV

Components:
Nuclear Repulsion  :         3210.50292639 Eh           87362.22604 eV
Electronic Energy  :        -7803.15236506 Eh         -212334.57073 eV
One Electron Energy:       -12783.77057469 Eh         -347864.08241 eV
Two Electron Energy:         4980.61820963 Eh          135529.51167 eV
Max COSX asymmetry :            0.00000182 Eh               0.00005 eV

Virial components:
Potential Energy   :        -9173.49379421 Eh         -249623.45675 eV
Kinetic Energy     :         4580.84435554 Eh          124651.11205 eV
Virial Ratio       :            2.00257705


DFT components:
N(Alpha)           :      116.999992946438 electrons
N(Beta)            :      115.999992930436 electrons
N(Total)           :      232.999985876875 electrons
E(X)               :     -245.405766258589 Eh       
E(C)               :      -10.617751041494 Eh       
E(XC)              :     -256.023517300083 Eh       
DFET-embed. en.    :        0.000000000000 Eh       

---------------
SCF CONVERGENCE
---------------

  Last Energy change         ...   -1.1528e-07  Tolerance :   1.0000e-06
  Last MAX-Density change    ...    0.0000e+00  Tolerance :   1.0000e-05
  Last RMS-Density change    ...    0.0000e+00  Tolerance :   1.0000e-06
  Last DIIS Error            ...    3.0191e-05  Tolerance :   1.0000e-06

             **** THE GBW FILE WAS UPDATED (input_79.gbw) ****
             **** DENSITY input_79.scfp WAS UPDATED ****
             **** ENERGY FILE WAS UPDATED (input_79.en.tmp) ****
----------------------
UHF SPIN CONTAMINATION
----------------------

Warning: in a DFT calculation there is little theoretical justification to 
         calculate <S**2> as in Hartree-Fock theory. We will do it anyways
         but you should keep in mind that the values have only limited relevance

Expectation value of <S**2>     :     0.764891
Ideal value S*(S+1) for S=0.5   :     0.750000
Deviation                       :     0.014891

             **** THE GBW FILE WAS UPDATED (input_79.gbw) ****
             **** DENSITY input_79.scfp WAS UPDATED ****
----------------
ORBITAL ENERGIES
----------------
                 SPIN UP ORBITALS
  NO   OCC          E(Eh)            E(eV) 
   0   1.0000    -196.643776     -5350.9492 
   1   1.0000     -88.684313     -2413.2228 
   2   1.0000     -88.684306     -2413.2227 
   3   1.0000     -88.679458     -2413.0907 
   4   1.0000     -88.679412     -2413.0895 
   5   1.0000     -88.616588     -2411.3799 
   6   1.0000     -88.616474     -2411.3769 
   7   1.0000     -88.615053     -2411.3382 
   8   1.0000     -88.614984     -2411.3363 
   9   1.0000     -22.019563      -599.1828 
  10   1.0000     -18.860721      -513.2263 
  11   1.0000     -18.526385      -504.1286 
  12   1.0000     -18.520614      -503.9715 
  13   1.0000     -18.520581      -503.9706 
  14   1.0000     -10.053940      -273.5816 
  15   1.0000     -10.022012      -272.7128 
  16   1.0000     -10.016107      -272.5521 
  17   1.0000     -10.016090      -272.5517 
  18   1.0000     -10.014402      -272.5057 
  19   1.0000     -10.014393      -272.5055 
  20   1.0000      -9.997311      -272.0407 
  21   1.0000      -9.996598      -272.0213 
  22   1.0000      -9.994713      -271.9700 
  23   1.0000      -9.993992      -271.9504 
  24   1.0000      -7.737921      -210.5595 
  25   1.0000      -7.737909      -210.5592 
  26   1.0000      -7.733119      -210.4289 
  27   1.0000      -7.733070      -210.4275 
  28   1.0000      -7.670974      -208.7378 
  29   1.0000      -7.670894      -208.7356 
  30   1.0000      -7.669457      -208.6965 
  31   1.0000      -7.669445      -208.6962 
  32   1.0000      -5.703161      -155.1909 
  33   1.0000      -5.703157      -155.1908 
  34   1.0000      -5.699211      -155.0834 
  35   1.0000      -5.699196      -155.0830 
  36   1.0000      -5.698356      -155.0602 
  37   1.0000      -5.698309      -155.0589 
  38   1.0000      -5.694458      -154.9541 
  39   1.0000      -5.694412      -154.9528 
  40   1.0000      -5.692706      -154.9064 
  41   1.0000      -5.692700      -154.9062 
  42   1.0000      -5.687877      -154.7750 
  43   1.0000      -5.687829      -154.7737 
  44   1.0000      -5.635866      -153.3597 
  45   1.0000      -5.635779      -153.3573 
  46   1.0000      -5.634301      -153.3171 
  47   1.0000      -5.634294      -153.3169 
  48   1.0000      -5.629400      -153.1838 
  49   1.0000      -5.629311      -153.1813 
  50   1.0000      -5.628941      -153.1713 
  51   1.0000      -5.628852      -153.1689 
  52   1.0000      -5.627904      -153.1431 
  53   1.0000      -5.627882      -153.1425 
  54   1.0000      -5.627434      -153.1303 
  55   1.0000      -5.627413      -153.1297 
  56   1.0000      -2.413249       -65.6678 
  57   1.0000      -1.454590       -39.5814 
  58   1.0000      -1.443041       -39.2672 
  59   1.0000      -1.441966       -39.2379 
  60   1.0000      -0.649673       -17.6785 
  61   1.0000      -0.645519       -17.5655 
  62   1.0000      -0.621672       -16.9165 
  63   1.0000      -0.595587       -16.2067 
  64   1.0000      -0.594482       -16.1767 
  65   1.0000      -0.586731       -15.9658 
  66   1.0000      -0.579647       -15.7730 
  67   1.0000      -0.495998       -13.4968 
  68   1.0000      -0.490739       -13.3537 
  69   1.0000      -0.489713       -13.3258 
  70   1.0000      -0.486374       -13.2349 
  71   1.0000      -0.429729       -11.6935 
  72   1.0000      -0.424651       -11.5553 
  73   1.0000      -0.412168       -11.2157 
  74   1.0000      -0.406857       -11.0711 
  75   1.0000      -0.379076       -10.3152 
  76   1.0000      -0.375837       -10.2270 
  77   1.0000      -0.304422        -8.2838 
  78   1.0000      -0.296751        -8.0750 
  79   1.0000      -0.268952        -7.3186 
  80   1.0000      -0.267239        -7.2719 
  81   1.0000      -0.261126        -7.1056 
  82   1.0000      -0.252039        -6.8583 
  83   1.0000      -0.249757        -6.7962 
  84   1.0000      -0.243768        -6.6333 
  85   1.0000      -0.209355        -5.6968 
  86   1.0000      -0.197690        -5.3794 
  87   1.0000      -0.193838        -5.2746 
  88   1.0000      -0.190929        -5.1954 
  89   1.0000      -0.185503        -5.0478 
  90   1.0000      -0.182485        -4.9657 
  91   1.0000      -0.167242        -4.5509 
  92   1.0000      -0.154454        -4.2029 
  93   1.0000      -0.153936        -4.1888 
  94   1.0000      -0.147442        -4.0121 
  95   1.0000      -0.144524        -3.9327 
  96   1.0000      -0.138306        -3.7635 
  97   1.0000      -0.101240        -2.7549 
  98   1.0000      -0.100208        -2.7268 
  99   1.0000      -0.091128        -2.4797 
 100   1.0000      -0.085955        -2.3389 
 101   1.0000      -0.084363        -2.2956 
 102   1.0000      -0.083695        -2.2775 
 103   1.0000      -0.072526        -1.9735 
 104   1.0000      -0.054224        -1.4755 
 105   1.0000      -0.043480        -1.1831 
 106   1.0000      -0.042642        -1.1604 
 107   1.0000      -0.040059        -1.0901 
 108   1.0000      -0.036257        -0.9866 
 109   1.0000      -0.017372        -0.4727 
 110   1.0000      -0.008552        -0.2327 
 111   1.0000      -0.007283        -0.1982 
 112   1.0000       0.002566         0.0698 
 113   1.0000       0.006683         0.1819 
 114   1.0000       0.012561         0.3418 
 115   1.0000       0.029889         0.8133 
 116   1.0000       0.056133         1.5275 
 117   0.0000       0.144507         3.9322 
 118   0.0000       0.185271         5.0415 
 119   0.0000       0.189258         5.1500 
 120   0.0000       0.192934         5.2500 
 121   0.0000       0.206291         5.6135 
 122   0.0000       0.209674         5.7055 
 123   0.0000       0.209914         5.7121 
 124   0.0000       0.215295         5.8585 
 125   0.0000       0.218442         5.9441 
 126   0.0000       0.229055         6.2329 
 127   0.0000       0.237727         6.4689 
 128   0.0000       0.240955         6.5567 
 129   0.0000       0.241852         6.5811 
 130   0.0000       0.245570         6.6823 
 131   0.0000       0.247340         6.7305 
 132   0.0000       0.252031         6.8581 
 133   0.0000       0.254043         6.9129 
 134   0.0000       0.256090         6.9686 
 135   0.0000       0.257322         7.0021 
 136   0.0000       0.263448         7.1688 
 137   0.0000       0.274434         7.4677 
 138   0.0000       0.275962         7.5093 
 139   0.0000       0.276693         7.5292 
 140   0.0000       0.280544         7.6340 
 141   0.0000       0.282284         7.6813 
 142   0.0000       0.282771         7.6946 
 143   0.0000       0.291210         7.9242 
 144   0.0000       0.302141         8.2217 
 145   0.0000       0.308439         8.3931 
 146   0.0000       0.309771         8.4293 
 147   0.0000       0.315709         8.5909 
 148   0.0000       0.325300         8.8519 
 149   0.0000       0.329679         8.9710 
 150   0.0000       0.344728         9.3805 
 151   0.0000       0.357666         9.7326 
 152   0.0000       0.374595        10.1932 
 153   0.0000       0.379108        10.3161 
 154   0.0000       0.392181        10.6718 
 155   0.0000       0.393546        10.7089 
 156   0.0000       0.395038        10.7495 
 157   0.0000       0.396757        10.7963 
 158   0.0000       0.401144        10.9157 
 159   0.0000       0.408961        11.1284 
 160   0.0000       0.409574        11.1451 
 161   0.0000       0.422006        11.4834 
 162   0.0000       0.423434        11.5222 
 163   0.0000       0.426822        11.6144 
 164   0.0000       0.428468        11.6592 
 165   0.0000       0.449681        12.2365 
 166   0.0000       0.452017        12.3000 
 167   0.0000       0.452569        12.3150 
 168   0.0000       0.454018        12.3545 
 169   0.0000       0.457903        12.4602 
 170   0.0000       0.462560        12.5869 
 171   0.0000       0.468657        12.7528 
 172   0.0000       0.475922        12.9505 
 173   0.0000       0.478426        13.0186 
 174   0.0000       0.484792        13.1919 
 175   0.0000       0.491501        13.3744 
 176   0.0000       0.492220        13.3940 
 177   0.0000       0.497841        13.5469 
 178   0.0000       0.499317        13.5871 
 179   0.0000       0.504361        13.7244 
 180   0.0000       0.507260        13.8032 
 181   0.0000       0.508283        13.8311 
 182   0.0000       0.515367        14.0239 
 183   0.0000       0.519947        14.1485 
 184   0.0000       0.532099        14.4791 
 185   0.0000       0.534772        14.5519 
 186   0.0000       0.544852        14.8262 
 187   0.0000       0.547638        14.9020 
 188   0.0000       0.548935        14.9373 
 189   0.0000       0.552978        15.0473 
 190   0.0000       0.553128        15.0514 
 191   0.0000       0.559301        15.2194 
 192   0.0000       0.565159        15.3788 
 193   0.0000       0.568856        15.4794 
 194   0.0000       0.573222        15.5982 
 195   0.0000       0.574197        15.6247 
 196   0.0000       0.576148        15.6778 
 197   0.0000       0.585935        15.9441 
 198   0.0000       0.587084        15.9754 
 199   0.0000       0.589290        16.0354 
 200   0.0000       0.589624        16.0445 
 201   0.0000       0.593096        16.1390 
 202   0.0000       0.598431        16.2841 
 203   0.0000       0.600163        16.3313 
 204   0.0000       0.607404        16.5283 
 205   0.0000       0.611077        16.6282 
 206   0.0000       0.620184        16.8761 
 207   0.0000       0.627946        17.0873 
 208   0.0000       0.628614        17.1055 
 209   0.0000       0.631684        17.1890 
 210   0.0000       0.633948        17.2506 
 211   0.0000       0.637393        17.3443 
 212   0.0000       0.647222        17.6118 
 213   0.0000       0.648861        17.6564 
 214   0.0000       0.650445        17.6995 
 215   0.0000       0.651789        17.7361 
 216   0.0000       0.659939        17.9578 
 217   0.0000       0.660186        17.9646 
 218   0.0000       0.662356        18.0236 
 219   0.0000       0.665642        18.1130 
 220   0.0000       0.669909        18.2292 
 221   0.0000       0.680222        18.5098 
 222   0.0000       0.680808        18.5257 
 223   0.0000       0.700125        19.0514 
 224   0.0000       0.717782        19.5318 
 225   0.0000       0.718061        19.5394 
 226   0.0000       0.722220        19.6526 
 227   0.0000       0.728564        19.8252 
 228   0.0000       0.736627        20.0446 
 229   0.0000       0.753631        20.5073 
 230   0.0000       0.771156        20.9842 
 231   0.0000       0.774709        21.0809 
 232   0.0000       0.779509        21.2115 
 233   0.0000       0.793985        21.6054 
 234   0.0000       0.799506        21.7557 
 235   0.0000       0.835397        22.7323 
 236   0.0000       0.863104        23.4863 
 237   0.0000       0.869877        23.6706 
 238   0.0000       0.870319        23.6826 
 239   0.0000       0.880079        23.9482 
 240   0.0000       0.885582        24.0979 
 241   0.0000       0.900184        24.4953 
 242   0.0000       0.908463        24.7205 
 243   0.0000       0.910042        24.7635 
 244   0.0000       0.915122        24.9017 
 245   0.0000       0.919946        25.0330 
 246   0.0000       0.927860        25.2484 
 247   0.0000       0.946165        25.7465 
 248   0.0000       0.959096        26.0983 
 249   0.0000       0.970378        26.4053 
 250   0.0000       0.972217        26.4554 
 251   0.0000       0.978048        26.6140 
 252   0.0000       0.979628        26.6570 
 253   0.0000       0.984533        26.7905 
 254   0.0000       0.997119        27.1330 
 255   0.0000       0.999113        27.1872 
 256   0.0000       1.001460        27.2511 
 257   0.0000       1.015958        27.6456 
 258   0.0000       1.025205        27.8973 
 259   0.0000       1.027315        27.9547 
 260   0.0000       1.052441        28.6384 
 261   0.0000       1.053834        28.6763 
 262   0.0000       1.055304        28.7163 
 263   0.0000       1.055915        28.7329 
 264   0.0000       1.077404        29.3176 
 265   0.0000       1.086630        29.5687 
 266   0.0000       1.097337        29.8601 
 267   0.0000       1.117333        30.4042 
 268   0.0000       1.119446        30.4617 
 269   0.0000       1.120443        30.4888 
 270   0.0000       1.121966        30.5303 
 271   0.0000       1.128491        30.7078 
 272   0.0000       1.130608        30.7654 
 273   0.0000       1.131135        30.7798 
 274   0.0000       1.132998        30.8304 
 275   0.0000       1.147133        31.2151 
 276   0.0000       1.152822        31.3699 
 277   0.0000       1.156261        31.4635 
 278   0.0000       1.179272        32.0896 
 279   0.0000       1.191272        32.4162 
 280   0.0000       1.199471        32.6393 
 281   0.0000       1.233021        33.5522 
 282   0.0000       1.235575        33.6217 
 283   0.0000       1.268676        34.5224 
 284   0.0000       1.270662        34.5765 
 285   0.0000       1.287100        35.0238 
 286   0.0000       1.297501        35.3068 
 287   0.0000       1.300831        35.3974 
 288   0.0000       1.311798        35.6958 
 289   0.0000       1.349709        36.7274 
 290   0.0000       1.361239        37.0412 
 291   0.0000       1.378255        37.5042 
 292   0.0000       1.387568        37.7577 
 293   0.0000       1.412839        38.4453 
 294   0.0000       1.416290        38.5392 
 295   0.0000       1.432925        38.9919 
 296   0.0000       1.436740        39.0957 
 297   0.0000       1.438606        39.1465 
 298   0.0000       1.459682        39.7200 
 299   0.0000       1.469053        39.9750 
 300   0.0000       1.474192        40.1148 
 301   0.0000       1.483266        40.3617 
 302   0.0000       1.485659        40.4268 
 303   0.0000       1.486174        40.4409 
 304   0.0000       1.488883        40.5146 
 305   0.0000       1.517653        41.2974 
 306   0.0000       1.523901        41.4675 
 307   0.0000       1.533440        41.7270 
 308   0.0000       1.541095        41.9353 
 309   0.0000       1.543650        42.0048 
 310   0.0000       1.551958        42.2309 
 311   0.0000       1.569878        42.7186 
 312   0.0000       1.589841        43.2618 
 313   0.0000       1.595054        43.4036 
 314   0.0000       1.600593        43.5544 
 315   0.0000       1.610042        43.8115 
 316   0.0000       1.615681        43.9649 
 317   0.0000       1.629934        44.3527 
 318   0.0000       1.638199        44.5777 
 319   0.0000       1.655619        45.0517 
 320   0.0000       1.666620        45.3510 
 321   0.0000       1.667704        45.3805 
 322   0.0000       1.668996        45.4157 
 323   0.0000       1.669106        45.4187 
 324   0.0000       1.691784        46.0358 
 325   0.0000       1.696551        46.1655 
 326   0.0000       1.702012        46.3141 
 327   0.0000       1.715019        46.6680 
 328   0.0000       1.717641        46.7394 
 329   0.0000       1.726797        46.9885 
 330   0.0000       1.737461        47.2787 
 331   0.0000       1.748694        47.5844 
 332   0.0000       1.753336        47.7107 
 333   0.0000       1.765369        48.0381 
 334   0.0000       1.778415        48.3931 
 335   0.0000       1.784566        48.5605 
 336   0.0000       1.788453        48.6663 
 337   0.0000       1.803334        49.0712 
 338   0.0000       1.828286        49.7502 
 339   0.0000       1.832199        49.8567 
 340   0.0000       1.841126        50.0996 
 341   0.0000       1.842696        50.1423 
 342   0.0000       1.845470        50.2178 
 343   0.0000       1.853247        50.4294 
 344   0.0000       1.860176        50.6180 
 345   0.0000       1.868717        50.8504 
 346   0.0000       1.870623        50.9023 
 347   0.0000       1.874086        50.9965 
 348   0.0000       1.907959        51.9182 
 349   0.0000       1.913368        52.0654 
 350   0.0000       1.926945        52.4348 
 351   0.0000       1.928716        52.4830 
 352   0.0000       1.938361        52.7455 
 353   0.0000       1.955047        53.1995 
 354   0.0000       1.960658        53.3522 
 355   0.0000       1.972310        53.6693 
 356   0.0000       1.986373        54.0520 
 357   0.0000       2.012255        54.7562 
 358   0.0000       2.017167        54.8899 
 359   0.0000       2.023154        55.0528 
 360   0.0000       2.046014        55.6749 
 361   0.0000       2.048785        55.7503 
 362   0.0000       2.054422        55.9037 
 363   0.0000       2.067356        56.2556 
 364   0.0000       2.069709        56.3197 
 365   0.0000       2.101184        57.1761 
 366   0.0000       2.103027        57.2263 
 367   0.0000       2.111515        57.4572 
 368   0.0000       2.123691        57.7886 
 369   0.0000       2.134717        58.0886 
 370   0.0000       2.136028        58.1243 
 371   0.0000       2.156575        58.6834 
 372   0.0000       2.157630        58.7121 
 373   0.0000       2.186702        59.5032 
 374   0.0000       2.187522        59.5255 
 375   0.0000       2.188598        59.5548 
 376   0.0000       2.200608        59.8816 
 377   0.0000       2.207005        60.0556 
 378   0.0000       2.215048        60.2745 
 379   0.0000       2.227739        60.6199 
 380   0.0000       2.228448        60.6392 
 381   0.0000       2.234564        60.8056 
 382   0.0000       2.235740        60.8376 
 383   0.0000       2.244492        61.0757 
 384   0.0000       2.251040        61.2539 
 385   0.0000       2.263568        61.5948 
 386   0.0000       2.271329        61.8060 
 387   0.0000       2.282557        62.1115 
 388   0.0000       2.286029        62.2060 
 389   0.0000       2.289469        62.2996 
 390   0.0000       2.290580        62.3299 
 391   0.0000       2.313379        62.9502 
 392   0.0000       2.336753        63.5863 
 393   0.0000       2.348268        63.8996 
 394   0.0000       2.353032        64.0292 
 395   0.0000       2.353360        64.0382 
 396   0.0000       2.394755        65.1646 
 397   0.0000       2.401700        65.3536 
 398   0.0000       2.403382        65.3994 
 399   0.0000       2.406278        65.4782 
 400   0.0000       2.426432        66.0266 
 401   0.0000       2.454616        66.7935 
 402   0.0000       2.463709        67.0409 
 403   0.0000       2.464398        67.0597 
 404   0.0000       2.488748        67.7223 
 405   0.0000       2.498232        67.9804 
 406   0.0000       2.511788        68.3492 
 407   0.0000       2.514490        68.4228 
 408   0.0000       2.517935        68.5165 
 409   0.0000       2.533237        68.9329 
 410   0.0000       2.543980        69.2252 
 411   0.0000       2.554033        69.4988 
 412   0.0000       2.591139        70.5085 
 413   0.0000       2.598286        70.7029 
 414   0.0000       2.611292        71.0569 
 415   0.0000       2.612706        71.0954 
 416   0.0000       2.613522        71.1176 
 417   0.0000       2.629373        71.5489 
 418   0.0000       2.636529        71.7436 
 419   0.0000       2.664788        72.5126 
 420   0.0000       2.667474        72.5857 
 421   0.0000       2.668134        72.6036 
 422   0.0000       2.676999        72.8448 
 423   0.0000       2.697196        73.3944 
 424   0.0000       2.730014        74.2875 
 425   0.0000       2.732016        74.3419 
 426   0.0000       2.743393        74.6515 
 427   0.0000       2.760813        75.1255 
 428   0.0000       2.781621        75.6918 
 429   0.0000       2.785974        75.8102 
 430   0.0000       2.798394        76.1482 
 431   0.0000       2.800286        76.1997 
 432   0.0000       2.848226        77.5042 
 433   0.0000       2.855080        77.6907 
 434   0.0000       2.856640        77.7331 
 435   0.0000       2.858103        77.7729 
 436   0.0000       2.887287        78.5671 
 437   0.0000       2.907779        79.1247 
 438   0.0000       2.908479        79.1438 
 439   0.0000       2.920154        79.4614 
 440   0.0000       2.923484        79.5520 
 441   0.0000       2.927814        79.6699 
 442   0.0000       2.930988        79.7562 
 443   0.0000       2.946728        80.1845 
 444   0.0000       2.962544        80.6149 
 445   0.0000       2.971881        80.8690 
 446   0.0000       3.009307        81.8874 
 447   0.0000       3.022736        82.2528 
 448   0.0000       3.036878        82.6377 
 449   0.0000       3.054926        83.1288 
 450   0.0000       3.058615        83.2291 
 451   0.0000       3.143361        85.5352 
 452   0.0000       3.198971        87.0484 
 453   0.0000       3.229305        87.8739 
 454   0.0000       3.291272        89.5601 
 455   0.0000       3.314641        90.1960 
 456   0.0000       3.395577        92.3983 
 457   0.0000       3.409280        92.7712 
 458   0.0000       3.427754        93.2739 
 459   0.0000       3.443033        93.6897 
 460   0.0000       3.448353        93.8345 
 461   0.0000       3.455705        94.0345 
 462   0.0000       3.477481        94.6271 
 463   0.0000       3.514518        95.6349 
 464   0.0000       3.536803        96.2413 
 465   0.0000       3.560766        96.8934 
 466   0.0000       3.576928        97.3332 
 467   0.0000       3.599217        97.9397 
 468   0.0000       3.643293        99.1391 
 469   0.0000       3.798098       103.3515 
 470   0.0000       3.840887       104.5159 
 471   0.0000       3.857491       104.9677 
 472   0.0000       3.991058       108.6022 
 473   0.0000       4.212198       114.6197 
 474   0.0000       4.538939       123.5108 
 475   0.0000       4.556015       123.9755 
 476   0.0000       4.559349       124.0662 
 477   0.0000       4.587561       124.8339 
 478   0.0000       4.615637       125.5979 
 479   0.0000       4.616043       125.6089 
 480   0.0000       5.198763       141.4655 
 481   0.0000       7.004663       190.6066 
 482   0.0000       7.051676       191.8859 
 483   0.0000       7.055262       191.9834 
 484   0.0000      18.715232       509.2674 
 485   0.0000      18.759061       510.4600 
[...]
Total number of batches                      ...      236
Average number of points per batch           ...       59
Average number of grid points per atom       ...      437

Memory available               ... 870.3 MB
Memory needed per perturbation ...  23.5 MB
Perturbations treated per batch... 3
Number of batches              ... 1
     CP-SCF ITERATION   0:   4.6995e-02 (   2.9 sec   0/  3 done)
     CP-SCF ITERATION   1:   1.8398e-03 (   3.0 sec   0/  3 done)
     CP-SCF ITERATION   2:   3.9460e-04 (   3.0 sec   3/  3 done)
                    *** THE CP-SCF HAS CONVERGED ***

Forming final perturbed densities           ... done
Transforming perturbed density to AO basis  ... done

 Raw HFC matrix (all values in MHz): 
 -----------------------------------
                -0.0748               0.1249               0.6377
                 0.1246              -0.4843               0.1578
                 0.6383               0.1573               0.4437

 A(FC)          -0.0378              -0.0378              -0.0378
 A(SD)          -0.4580              -0.4896               0.9477
 A(ORB+DIA)      0.0031               0.0027              -0.0078    A(PC) =  -0.0007
 A(ORB)          0.0031               0.0027              -0.0080    A(PC) =  -0.0007
 A(DIA)         -0.0000              -0.0001               0.0002    A(PC) =   0.0000
             ----------           ----------           ----------
 A(Tot)         -0.4927              -0.5247               0.9021    A(iso)=   -0.0385
 Orientation: 
  X           0.6159516            0.5601616           -0.5539156
  Y           0.5926716           -0.7927187           -0.1426094
  Z          -0.5189836           -0.2404496           -0.8202683

Notes:  (1) The A matrix conforms to the "SAI" spin Hamiltonian convention.
        (2) Tensor is right-handed.

 Raw EFG matrix (all values in a.u.**-3):
 -----------------------------------
            -0.0068       0.0848      -0.2122
             0.0848      -0.1138      -0.1179
            -0.2122      -0.1179       0.1207

 V(El)       0.6932       0.4110      -1.1042
 V(Nuc)     -0.8537      -0.5768       1.4305
         ----------   ----------   ----------
 V(Tot)     -0.1606      -0.1658       0.3264 
 Orientation: 
  X       0.5422059    0.6213822   -0.5655943
  Y      -0.8382554    0.4463273   -0.3132408
  Z       0.0577979    0.6439535    0.7628783

Note: Tensor is right-handed


 Quadrupole tensor eigenvalues (in MHz;Q= 0.0029 I=  1.0)
  e**2qQ            =     0.219172 MHz 
  e**2qQ/(4I*(2I-1))=     0.054793 MHz 
  eta               =     0.016142
  NOTE: the diagonal representation of the SH term I*Q*I = e**2qQ/(4I(2I-1))*[-(1-eta),-(1+eta),2]

 RHO(0)=      0.452845038 a.u.**-3

 -----------------------------------------------------------
 Nucleus  31H : A:ISTP=    1 I=  0.5 P=533.5514 MHz/au**3
                Q:ISTP=    2 I=  1.0 Q=  0.0029 barn     
 -----------------------------------------------------------
 Solving for nuclear perturbation:
Forming RHS of the CP-SCF equations         ... 
Calc. nucleus orbit integrals (SHARK)       ... done

------------------------------------------------------------------------------
                           ORCA CP-SCF CALCULATION
------------------------------------------------------------------------------

Input orbitals are from        ... input_79.gbw
Input Perturbation             ... input_79.pin.tmp
Wavefunction output            ... input_79.pout.tmp
Perturbation mode              ... Imaginary perturbation
Solver                         ... POPLE
Max. number of iterations      ... 64
Convergence tolerance          ... 1.000e-03
Integral handling              ... Direct
DFT GridXC                     ... 1
COSX GridX                     ... 1
COSX IntAccX                   ... 3.067
COSX Algorithm                 ... Auto
Number of perturbations        ... 3
Number of operators            ... 2
Orbital ranges used for CP-SCF:
 Operator 0:  Orbitals   0...116  to 117...516
 Operator 1:  Orbitals   0...115  to 116...516
Variables per perturbation     ... 93316
DFT calculation                         ... on
XC functional terms                     ... off
Hybrid DFT                              ... on
   Exchange mixing (SCF)                ...  0.200
   Exchange mixing (CP-SCF)             ...  0.200
   GGA exch. scaling(SCF)               ...  0.720
   GGA exch. scaling (CP-SCF)           ...  0.720
   GGA corr. scaling (SCF)              ...  0.810
   GGA corr. scaling (CP-SCF)           ...  0.810

CP-SCF GRID
-----------

General Integration Accuracy     IntAcc      ... 3.467
Radial Grid Type                 RadialGrid  ... OptM3 with GC (2021)
Angular Grid (max. ang.)         AngularGrid ... 1 (Lebedev-50)
Angular grid pruning method      GridPruning ... 4 (adaptive)
Weight generation scheme         WeightScheme... Becke
Basis function cutoff            BFCut       ... 1.0000e-10
Integration weight cutoff        WCut        ... 1.0000e-14
Angular grids for H and He will be reduced by one unit
Partially contracted basis set               ... off
Rotationally invariant grid construction     ... off

Total number of grid points                  ...    31457
Total number of batches                      ...      508
Average number of points per batch           ...       61
Average number of grid points per atom       ...      983

CP-SCF GRIDX
------------

General Integration Accuracy     IntAcc      ... 3.067
Radial Grid Type                 RadialGrid  ... OptM3 with GC (2021)
Angular Grid (max. ang.)         AngularGrid ... 1 (Lebedev-50)
Angular grid pruning method      GridPruning ... 4 (adaptive)
Weight generation scheme         WeightScheme... Becke
Basis function cutoff            BFCut       ... 1.0000e-10
Integration weight cutoff        WCut        ... 1.0000e-14
Angular grids for H and He will be reduced by one unit
Partially contracted basis set               ... on
Rotationally invariant grid construction     ... off

Total number of grid points                  ...    13995
Total number of batches                      ...      236
Average number of points per batch           ...       59
Average number of grid points per atom       ...      437

Memory available               ... 868.7 MB
Memory needed per perturbation ...  23.5 MB
Perturbations treated per batch... 3
Number of batches              ... 1
     CP-SCF ITERATION   0:   4.5327e-02 (   2.9 sec   0/  3 done)
     CP-SCF ITERATION   1:   1.6019e-03 (   3.0 sec   0/  3 done)
     CP-SCF ITERATION   2:   2.5070e-04 (   3.0 sec   3/  3 done)
                    *** THE CP-SCF HAS CONVERGED ***

Forming final perturbed densities           ... done
Transforming perturbed density to AO basis  ... done

 Raw HFC matrix (all values in MHz): 
 -----------------------------------
                -0.1712               0.0444               0.2632
                 0.0443              -0.2431               0.1164
                 0.2641               0.1164               0.3816

 A(FC)          -0.0106              -0.0106              -0.0106
 A(SD)          -0.2543              -0.2683               0.5226
 A(ORB+DIA)      0.0015               0.0018              -0.0042    A(PC) =  -0.0003
 A(ORB)          0.0016               0.0018              -0.0043    A(PC) =  -0.0003
 A(DIA)         -0.0001              -0.0000               0.0001    A(PC) =  -0.0000
             ----------           ----------           ----------
 A(Tot)         -0.2634              -0.2771               0.5078    A(iso)=   -0.0109
 Orientation: 
  X           0.1957884            0.9097986            0.3659691
  Y          -0.9759545            0.1443132            0.1633599
  Z           0.0958105           -0.3891532            0.9161769

Notes:  (1) The A matrix conforms to the "SAI" spin Hamiltonian convention.
        (2) Tensor is right-handed.

 Raw EFG matrix (all values in a.u.**-3):
 -----------------------------------
            -0.1851       0.0422       0.0548
             0.0422       0.0451       0.2851
             0.0548       0.2851       0.1400

 V(El)       0.5913       0.8920      -1.4833
 V(Nuc)     -0.7828      -1.0905       1.8732
         ----------   ----------   ----------
 V(Tot)     -0.1914      -0.1985       0.3899 
 Orientation: 
  X       0.8409432    0.5278252    0.1192268
  Y      -0.4710525    0.6056209    0.6413524
  Z       0.2663158   -0.5955030    0.7579262

Note: Tensor is right-handed


 Quadrupole tensor eigenvalues (in MHz;Q= 0.0029 I=  1.0)
  e**2qQ            =     0.261831 MHz 
  e**2qQ/(4I*(2I-1))=     0.065458 MHz 
  eta               =     0.018107
  NOTE: the diagonal representation of the SH term I*Q*I = e**2qQ/(4I(2I-1))*[-(1-eta),-(1+eta),2]

 RHO(0)=      0.473665530 a.u.**-3

 -----------------------------------------------------------
 Nucleus   0V : A:ISTP=   51 I=  3.5 P=140.5173 MHz/au**3
                Q:ISTP=   51 I=  3.5 Q= -0.0430 barn     
 -----------------------------------------------------------
 Solving for nuclear perturbation:
Forming RHS of the CP-SCF equations         ... 
Calc. nucleus orbit integrals (SHARK)       ... done

------------------------------------------------------------------------------
                           ORCA CP-SCF CALCULATION
------------------------------------------------------------------------------

Input orbitals are from        ... input_79.gbw
Input Perturbation             ... input_79.pin.tmp
Wavefunction output            ... input_79.pout.tmp
Perturbation mode              ... Imaginary perturbation
Solver                         ... POPLE
Max. number of iterations      ... 64
Convergence tolerance          ... 1.000e-03
Integral handling              ... Direct
DFT GridXC                     ... 1
COSX GridX                     ... 1
COSX IntAccX                   ... 3.067
COSX Algorithm                 ... Auto
Number of perturbations        ... 3
Number of operators            ... 2
Orbital ranges used for CP-SCF:
 Operator 0:  Orbitals   0...116  to 117...516
 Operator 1:  Orbitals   0...115  to 116...516
Variables per perturbation     ... 93316
DFT calculation                         ... on
XC functional terms                     ... off
Hybrid DFT                              ... on
   Exchange mixing (SCF)                ...  0.200
   Exchange mixing (CP-SCF)             ...  0.200
   GGA exch. scaling(SCF)               ...  0.720
   GGA exch. scaling (CP-SCF)           ...  0.720
   GGA corr. scaling (SCF)              ...  0.810
   GGA corr. scaling (CP-SCF)           ...  0.810

CP-SCF GRID
-----------

General Integration Accuracy     IntAcc      ... 3.467
Radial Grid Type                 RadialGrid  ... OptM3 with GC (2021)
Angular Grid (max. ang.)         AngularGrid ... 1 (Lebedev-50)
Angular grid pruning method      GridPruning ... 4 (adaptive)
Weight generation scheme         WeightScheme... Becke
Basis function cutoff            BFCut       ... 1.0000e-10
Integration weight cutoff        WCut        ... 1.0000e-14
Angular grids for H and He will be reduced by one unit
Partially contracted basis set               ... off
Rotationally invariant grid construction     ... off

Total number of grid points                  ...    31457
Total number of batches                      ...      508
Average number of points per batch           ...       61
Average number of grid points per atom       ...      983

CP-SCF GRIDX
------------

General Integration Accuracy     IntAcc      ... 3.067
Radial Grid Type                 RadialGrid  ... OptM3 with GC (2021)
Angular Grid (max. ang.)         AngularGrid ... 1 (Lebedev-50)
Angular grid pruning method      GridPruning ... 4 (adaptive)
Weight generation scheme         WeightScheme... Becke
Basis function cutoff            BFCut       ... 1.0000e-10
Integration weight cutoff        WCut        ... 1.0000e-14
Angular grids for H and He will be reduced by one unit
Partially contracted basis set               ... on
Rotationally invariant grid construction     ... off

Total number of grid points                  ...    13995
Total number of batches                      ...      236
Average number of points per batch           ...       59
Average number of grid points per atom       ...      437

Memory available               ... 867.2 MB
Memory needed per perturbation ...  23.5 MB
Perturbations treated per batch... 3
Number of batches              ... 1
     CP-SCF ITERATION   0:   1.2493e+01 (   3.1 sec   0/  3 done)
     CP-SCF ITERATION   1:   1.8534e+00 (   3.0 sec   0/  3 done)
     CP-SCF ITERATION   2:   3.2799e-01 (   3.0 sec   0/  3 done)
     CP-SCF ITERATION   3:   3.7872e-02 (   3.0 sec   0/  3 done)
     CP-SCF ITERATION   4:   4.9388e-03 (   3.0 sec   0/  3 done)
     CP-SCF ITERATION   5:   1.2849e-03 (   3.0 sec   1/  3 done)
     CP-SCF ITERATION   6:   2.8710e-04 (   2.4 sec   3/  3 done)
                    *** THE CP-SCF HAS CONVERGED ***

Forming final perturbed densities           ... done
Transforming perturbed density to AO basis  ... done

 Raw HFC matrix (all values in MHz): 
 -----------------------------------
              -364.6020             -48.4089             -19.4675
               -48.3931             -80.0101               0.1352
               -19.5308               0.1322             -85.1714

 A(FC)        -165.4927            -165.4927            -165.4927
 A(SD)         100.8531              88.3963            -189.2494
 A(ORB+DIA)     -6.5060              -7.6539             -19.1454    A(PC) = -11.1018
 A(ORB)         -6.5056              -7.6544             -19.1453    A(PC) = -11.1018
 A(DIA)         -0.0004               0.0005              -0.0001    A(PC) =  -0.0000
             ----------           ----------           ----------
 A(Tot)        -71.1457             -84.7504            -373.8875    A(iso)= -176.5945
 Orientation: 
  X           0.1737186            0.0225908            0.9845362
  Y          -0.9524838            0.2578433            0.1621467
  Z          -0.2501930           -0.9659226            0.0663096

Notes:  (1) The A matrix conforms to the "SAI" spin Hamiltonian convention.
        (2) Tensor is right-handed.

 Raw EFG matrix (all values in a.u.**-3):
 -----------------------------------
             0.2864       0.0599       0.0354
             0.0599      -0.0952       0.0291
             0.0354       0.0291      -0.1912

 V(El)       0.1388      -0.4642       0.3254
 V(Nuc)     -0.2375       0.2641      -0.0267
         ----------   ----------   ----------
 V(Tot)     -0.0987      -0.2000       0.2987 
 Orientation: 
  X      -0.1704449   -0.0402718    0.9845439
  Y       0.9567345   -0.2458784    0.1555731
  Z       0.2358129    0.9684637    0.0804382

Note: Tensor is right-handed


 Quadrupole tensor eigenvalues (in MHz;Q=-0.0430 I=  3.5)
  e**2qQ            =    -3.018164 MHz 
  e**2qQ/(4I*(2I-1))=    -0.035931 MHz 
  eta               =     0.339208
  NOTE: the diagonal representation of the SH term I*Q*I = e**2qQ/(4I(2I-1))*[-(1-eta),-(1+eta),2]

 RHO(0)=   8115.212101839 a.u.**-3


--------------------------------------------------------------------------------
----------------------------------------------------------------------------
                           ORCA EULER ANGLE PROGRAM
----------------------------------------------------------------------------

Only g-tensor available        -->  using g-tensor as reference tensor

Reference tensor               ...  g

g-tensor ordering              ...  |g_min> --> |gx>
                                    |g_mid> --> |gy>
                                    |g_max> --> |gz>

A- and EFG-tensor ordering     ...  the axes |Ax>, |Qx>, |Ay>, etc. are assigned
                                    such that the Euler rotation is minimal. You
                                    can find the respective eigenvalues as Ax,
                                    EFGx, Ay, etc. in the tables below.
                                    The relation of |Ax>, |Ay>,  etc. to Amin, Amid, etc.
                                    (as printed in the ORCA EPR/NMR CALCULATION Output)
                                    is obtained in the detailed printout.

Euler rotation around          ...  z - y - z
   First rotation              -->  by alpha around z
   Second rotation             -->  by beta around y'
   Third rotation              -->  by gamma around z''
   Positive / Negative angle   -->  clockwise / counterclockwise rotation

Plot EFG-tensors                    (-)
Plot HFC-tensors                    (-)
Detailed Printout                   (-)

-------------------------------------------------------------------------
          Euler rotation of hyperfine tensor to g-tensor
-------------------------------------------------------------------------

-------------------------------------------------------------------
 Atom  |   Alpha    Beta    Gamma   |   Ax       Ay       Az 
       |          [degrees]         |           [MHz]         
-------------------------------------------------------------------
 19H     -142.0     24.4   -175.0      -0.49     0.90    -0.52
 20H      -63.2     22.0     89.9      -0.28     0.50    -0.26
 21H      -26.7      1.0     60.2      -0.08     0.48    -0.08
 22H      -20.9      1.5     39.8      -0.22     0.45    -0.22
 23H      115.7     20.7    -89.0      -0.27     0.50    -0.26
 24H       35.6     24.3      7.1      -0.49     0.90    -0.53
 26H       72.4     19.4    -99.3      -0.28     0.51    -0.26
 27H      144.2     24.6    173.5      -0.49     0.90    -0.53
 28H     -167.8      2.2    149.3      -0.21     0.43    -0.22
 29H     -157.7      0.8    123.5       0.23     0.73     0.24
 30H      -38.0     24.1     -4.6      -0.49     0.90    -0.52
 31H     -110.4     20.5     83.3      -0.28     0.51    -0.26
  0V      -91.7      0.5     91.7    -373.89   -84.75   -71.15
-------------------------------------------------------------------


-------------------------------------------------------------------------------
    Euler rotation of Electric Field Gradient (EFG) tensor to g-tensor
-------------------------------------------------------------------------------

-------------------------------------------------------------------
 Atom  |   Alpha    Beta    Gamma  |   EFGx     EFGy     EFGz
       |          [degrees]        |         [a.u.**-3]       
-------------------------------------------------------------------
 19H      179.5     38.5    146.6     -0.15     0.30    -0.15
 20H       34.0     38.3    -64.0     -0.15    -0.16     0.32
 21H     -102.2      0.6     83.3      0.13    -0.07    -0.06
 22H     -119.4      0.6     84.9     -0.13     0.25    -0.12
 23H     -145.2     39.3    115.5     -0.15    -0.16     0.32
 24H       -2.1     38.2    -32.0     -0.15     0.30    -0.15
 26H      -34.0     39.2     65.5     -0.19    -0.20     0.39
 27H     -176.8     28.7   -148.9     -0.17     0.33    -0.16
 28H      -86.1      0.7    118.6     -0.10     0.18    -0.08
 29H      -87.4      0.7    115.2      0.01    -0.00    -0.00
 30H        0.2     28.9     33.7     -0.17     0.33    -0.16
 31H      147.9     38.3   -116.1     -0.19    -0.20     0.39
  0V      -96.7      1.4     97.6      0.30    -0.20    -0.10
-------------------------------------------------------------------


Maximum memory used throughout the entire EPRNMR-calculation: 219.8 MB

Timings for individual modules:

Sum of individual times         ...     1671.051 sec (=  27.851 min)
GTO integral calculation        ...        1.356 sec (=   0.023 min)   0.1 %
Spin-Orbit-Coupling Matrices    ...        6.747 sec (=   0.112 min)   0.4 %
SCF iterations                  ...      121.647 sec (=   2.027 min)   7.3 %
EPR/NMR calculation             ...     1541.301 sec (=  25.688 min)  92.2 %
                             ****ORCA TERMINATED NORMALLY****
TOTAL RUN TIME: 0 days 0 hours 27 minutes 52 seconds 191 msec
