
                                 *****************
                                 * O   R   C   A *
                                 *****************

                                            #,                                       
                                            ###                                      
                                            ####                                     
                                            #####                                    
                                            ######                                   
                                           ########,                                 
                                     ,,################,,,,,                         
                               ,,#################################,,                 
                          ,,##########################################,,             
                       ,#########################################, ''#####,          
                    ,#############################################,,   '####,        
                  ,##################################################,,,,####,       
                ,###########''''           ''''###############################       
              ,#####''   ,,,,##########,,,,          '''####'''          '####       
            ,##' ,,,,###########################,,,                        '##       
           ' ,,###''''                  '''############,,,                           
         ,,##''                                '''############,,,,        ,,,,,,###''
      ,#''                                            '''#######################'''  
     '                                                          ''''####''''         
             ,#######,   #######,   ,#######,      ##                                
            ,#'     '#,  ##    ##  ,#'     '#,    #''#        ######   ,####,        
            ##       ##  ##   ,#'  ##            #'  '#       #        #'  '#        
            ##       ##  #######   ##           ,######,      #####,   #    #        
            '#,     ,#'  ##    ##  '#,     ,#' ,#      #,         ##   #,  ,#        
             '#######'   ##     ##  '#######'  #'      '#     #####' # '####'        



                  #######################################################
                  #                        -***-                        #
                  #          Department of theory and spectroscopy      #
                  #    Directorship and core code : Frank Neese         #
                  #        Max Planck Institute fuer Kohlenforschung    #
                  #                Kaiser Wilhelm Platz 1               #
                  #                 D-45470 Muelheim/Ruhr               #
                  #                      Germany                        #
                  #                                                     #
                  #                  All rights reserved                #
                  #                        -***-                        #
                  #######################################################


                         Program Version 5.0.4 -  RELEASE  -


 With contributions from (in alphabetic order):
   Daniel Aravena         : Magnetic Suceptibility
   Michael Atanasov       : Ab Initio Ligand Field Theory (pilot matlab implementation)
   Alexander A. Auer      : GIAO ZORA, VPT2 properties, NMR spectrum
   Ute Becker             : Parallelization
   Giovanni Bistoni       : ED, misc. LED, open-shell LED, HFLD
   Martin Brehm           : Molecular dynamics
   Dmytro Bykov           : SCF Hessian
   Vijay G. Chilkuri      : MRCI spin determinant printing, contributions to CSF-ICE
   Dipayan Datta          : RHF DLPNO-CCSD density
   Achintya Kumar Dutta   : EOM-CC, STEOM-CC
   Dmitry Ganyushin       : Spin-Orbit,Spin-Spin,Magnetic field MRCI
   Miquel Garcia          : C-PCM and meta-GGA Hessian, CC/C-PCM, Gaussian charge scheme
   Yang Guo               : DLPNO-NEVPT2, F12-NEVPT2, CIM, IAO-localization
   Andreas Hansen         : Spin unrestricted coupled pair/coupled cluster methods
   Benjamin Helmich-Paris : MC-RPA, TRAH-SCF, COSX integrals
   Lee Huntington         : MR-EOM, pCC
   Robert Izsak           : Overlap fitted RIJCOSX, COSX-SCS-MP3, EOM
   Marcus Kettner         : VPT2
   Christian Kollmar      : KDIIS, OOCD, Brueckner-CCSD(T), CCSD density, CASPT2, CASPT2-K
   Simone Kossmann        : Meta GGA functionals, TD-DFT gradient, OOMP2, MP2 Hessian
   Martin Krupicka        : Initial AUTO-CI
   Lucas Lang             : DCDCAS
   Marvin Lechner         : AUTO-CI (C++ implementation), FIC-MRCC
   Dagmar Lenk            : GEPOL surface, SMD
   Dimitrios Liakos       : Extrapolation schemes; Compound Job, initial MDCI parallelization
   Dimitrios Manganas     : Further ROCIS development; embedding schemes
   Dimitrios Pantazis     : SARC Basis sets
   Anastasios Papadopoulos: AUTO-CI, single reference methods and gradients
   Taras Petrenko         : DFT Hessian,TD-DFT gradient, ASA, ECA, R-Raman, ABS, FL, XAS/XES, NRVS
   Peter Pinski           : DLPNO-MP2, DLPNO-MP2 Gradient
   Christoph Reimann      : Effective Core Potentials
   Marius Retegan         : Local ZFS, SOC
   Christoph Riplinger    : Optimizer, TS searches, QM/MM, DLPNO-CCSD(T), (RO)-DLPNO pert. Triples
   Tobias Risthaus        : Range-separated hybrids, TD-DFT gradient, RPA, STAB
   Michael Roemelt        : Original ROCIS implementation
   Masaaki Saitow         : Open-shell DLPNO-CCSD energy and density
   Barbara Sandhoefer     : DKH picture change effects
   Avijit Sen             : IP-ROCIS
   Kantharuban Sivalingam : CASSCF convergence, NEVPT2, FIC-MRCI
   Bernardo de Souza      : ESD, SOC TD-DFT
   Georgi Stoychev        : AutoAux, RI-MP2 NMR, DLPNO-MP2 response
   Willem Van den Heuvel  : Paramagnetic NMR
   Boris Wezisla          : Elementary symmetry handling
   Frank Wennmohs         : Technical directorship


 We gratefully acknowledge several colleagues who have allowed us to
 interface, adapt or use parts of their codes:
   Stefan Grimme, W. Hujo, H. Kruse, P. Pracht,  : VdW corrections, initial TS optimization,
                  C. Bannwarth, S. Ehlert          DFT functionals, gCP, sTDA/sTD-DF
   Ed Valeev, F. Pavosevic, A. Kumar             : LibInt (2-el integral package), F12 methods
   Garnet Chan, S. Sharma, J. Yang, R. Olivares  : DMRG
   Ulf Ekstrom                                   : XCFun DFT Library
   Mihaly Kallay                                 : mrcc  (arbitrary order and MRCC methods)
   Jiri Pittner, Ondrej Demel                    : Mk-CCSD
   Frank Weinhold                                : gennbo (NPA and NBO analysis)
   Christopher J. Cramer and Donald G. Truhlar   : smd solvation model
   Lars Goerigk                                  : TD-DFT with DH, B97 family of functionals
   V. Asgeirsson, H. Jonsson                     : NEB implementation
   FAccTs GmbH                                   : IRC, NEB, NEB-TS, DLPNO-Multilevel, CI-OPT
                                                   MM, QMMM, 2- and 3-layer-ONIOM, Crystal-QMMM,
                                                   LR-CPCM, SF, NACMEs, symmetry and pop. for TD-DFT,
                                                   nearIR, NL-DFT gradient (VV10), updates on ESD,
                                                   ML-optimized integration grids
   S Lehtola, MJT Oliveira, MAL Marques          : LibXC Library
   Liviu Ungur et al                             : ANISO software


 Your calculation uses the libint2 library for the computation of 2-el integrals
 For citations please refer to: http://libint.valeyev.net

 Your ORCA version has been built with support for libXC version: 5.1.0
 For citations please refer to: https://tddft.org/programs/libxc/

 This ORCA versions uses:
   CBLAS   interface :  Fast vector & matrix operations
   LAPACKE interface :  Fast linear algebra routines
   SCALAPACK package :  Parallel linear algebra routines
   Shared memory     :  Shared parallel matrices
   BLAS/LAPACK       :  OpenBLAS 0.3.15  USE64BITINT DYNAMIC_ARCH NO_AFFINITY Prescott SINGLE_THREADED
        Core in use  :  Prescott
   Copyright (c) 2011-2014, The OpenBLAS Project


================================================================================

----- Orbital basis set information -----
Your calculation utilizes the basis: TZVP 

The basis set includes element-specific modifications.

Your calculation utilizes the basis: CP(PPP) 

----- AuxJ basis set information -----
Your calculation utilizes the auxiliary basis: def2/J
   F. Weigend, Phys. Chem. Chem. Phys. 8, 1057 (2006).

================================================================================
                                        WARNINGS
                       Please study these warnings very carefully!
================================================================================


WARNING: your system is open-shell and RHF/RKS was chosen
  ===> : WILL SWITCH to UHF/UKS


INFO   : the flag for use of the SHARK integral package has been found!

================================================================================
                                       INPUT FILE
================================================================================
NAME = input_58.inp
|  1> ! nofrozencore ReducedPop printbasis
|  2> ! B3LYP TZVP
|  3> 
|  4> %basis
|  5> newgto V "CP(PPP)" end
|  6> end
|  7> 
|  8> %pal
|  9> nprocs 8
| 10> end
| 11> 
| 12> % sym SymThresh 1e-2 end
| 13> * xyz -2 2 
| 14> V -0.4865500617468547 -0.9468693557939686 -0.33291425106391415
| 15> S 1.3628908697284912 -1.5460527549318195 1.1591674598846573
| 16> S -1.6350719720451634 -0.17822479480223852 1.688828927134433
| 17> S 1.3199912240321052 -0.43374126825806414 -1.905185199553343
| 18> S -1.6942869521587132 0.9088181083353523 -1.3843667613622086
| 19> O -1.1785305216151045 -2.305399682328524 -0.8070696809341624
| 20> C -2.9107249020165415 0.8906109898189892 1.0804559507765392
| 21> C -2.933839660695961 1.3353674659139267 -0.20381549685935876
| 22> C 2.7539619285631347 -1.6868050558278835 0.07758842261131621
| 23> C 2.7365969590626444 -1.223077335347687 -1.2001488054940903
| 24> S -4.165276557415091 1.3415751686468649 2.3017926194997296
| 25> S -4.206890386608506 2.4534007454155105 -0.8128232208312942
| 26> S 4.1661302383342225 -1.3309075268539514 -2.295696447793945
| 27> S 4.209121924006116 -2.4598520130216026 0.8132157983620549
| 28> C -3.9072369928326256 4.015270748984925 0.13051496692836428
| 29> C 5.375352248439482 -0.17809114899363654 -1.509421214205211
| 30> C -3.8312423998000127 3.1376182876349477 2.560772805345954
| 31> C 5.410534837162634 -1.0620283031626454 0.9201228459450328
| 32> C -4.476660085835226 4.091479373012957 1.5215225203575704
| 33> H -2.77522988680431 3.529342888452614 2.5583837987028257
| 34> H -4.224657611403737 3.17561428085186 3.59679561310998
| 35> H -4.345937822452889 5.123821713378324 1.884625946278005
| 36> H -5.558697435318345 3.985680720102135 1.2461548723398674
| 37> H -4.354728944408777 4.915920548394254 -0.3413872232122437
| 38> H -2.8031375748542358 3.9962302072167497 -0.05389817579187709
| 39> C 6.195201488610896 -0.7486083864725199 -0.35229224808439874
| 40> H 6.109112922991245 -1.3504299149976962 1.7119682038407382
| 41> H 4.8515220145883315 -0.19114127047988996 1.2690071505669749
| 42> H 6.711241156122943 -1.6563987325920246 -0.6833223798779945
| 43> H 6.9742790512020365 -0.012644556206221694 -0.09545605907317849
| 44> H 4.824173402057509 0.7106942736937553 -1.194304889582966
| 45> H 6.044511682792349 0.115061556323001 -2.324494946657735
| 46> * 
| 47> 
| 48> % eprnmr
| 49> gtensor true
| 50> Nuclei = all H {aiso,adip,aorb,fgrad,rho}
| 51> Nuclei = all V {aiso,adip,aorb,fgrad,rho}
| 52> end
| 53> 
| 54>                          ****END OF INPUT****
================================================================================

------------------------------------------------------------------------------
                            SYMMETRY HANDLING SETUP
------------------------------------------------------------------------------

------------------
SYMMETRY DETECTION
------------------
The point group will now be determined using a tolerance of 1.0000e-02.
Splitting atom subsets according to nuclear charge, mass and basis set.
Splitting atom subsets according to distance from the molecule's center.
Identifying relative distance patterns of the atoms.
Splitting atom subsets according to atoms' relative distance patterns.
Bring atoms of each subset into input order.
The molecule is neither linear nor planar.

WARNING (ORCA_SYM): A non-planar off-center atom subset has been encountered
in function TSymmetryFinder::FilterSubsetShapes() which cannot occur under
regular conditions. The full point group may not be assigned correctly. If the
symmetry appears to be too low, please try increasing the cleaning tolerance
using option SymThresh in the %symmetry input block. If the problem persists,
you may post a message in the ORCA forum.
There is at least one atom subset not centered around the molecule's center.
The molecule does not have a center of inversion.
Analyzing the first atom subset for its symmetry.
The atom subset represents a 4-gon with alternating side lengths
that is not centered around the molecule's center.
Testing point group C2v.
Test failed.
Testing point group C2.
Test failed.
Testing point group Cs.
Test failed.
Testing point group Cs.
Test failed.
No testing is needed for point group C1.
This point group has been found:    C1
Largest non-degenerate subgroup:    C1


Mass-centered symmetry-perfected Cartesians (point group C1):

Atom          Symmetry-perfected Cartesians (x, y, z; au)
  0      -0.920560472703   -1.791164457404   -0.629748587865
  1       2.574376388649   -2.923456985767    2.189877215260
  2      -3.090952341975   -0.338636742802    3.190792332053
  3       2.493307807041   -0.821492900339   -3.600910088831
  4      -3.202852437415    1.715576639951   -2.616705875153
  5      -2.228214031879   -4.358414719181   -1.525772495232
  6      -5.501587021555    1.681170172267    2.041134019458
  7      -5.545267585111    2.521638108374   -0.385787298188
  8       5.203119722671   -3.189440287180    0.145989042623
  9       5.170304685991   -2.313121894765   -2.268584389612
 10      -7.872346071116    2.533368966460    4.349125840661
 11      -7.950984811675    4.634414815242   -1.536645109938
 12       7.871731083141   -2.516891425680   -4.338869400222
 13       7.952973595096   -4.650287324937    1.536123319407
 14      -7.384721962339    7.585921378775    0.246005716597
 15      10.156829517349   -0.338384188825   -2.853024542854
 16      -7.241112993848    5.927398586062    4.838527466022
 17      10.223314974718   -2.008783329802    1.738148361125
 18      -8.460775662444    7.729934807231    2.874629042794
 19      -5.245538550293    6.667650801527    4.834012897734
 20      -7.984560000698    5.999200607428    6.796326841192
 21      -8.213746385045    9.680779106973    3.560795076072
 22     -10.505529919641    7.530004327892    2.354259601899
 23      -8.230359197952    9.287902842230   -0.645760184766
 24      -5.298276437738    7.549939969392   -0.102484618640
 25      11.706120052377   -1.416505522341   -0.666367695258
 26      11.543436240093   -2.553783392752    3.234519227965
 27       9.166933834703   -0.363045344448    2.397444149284
 28      12.681293698214   -3.131980663525   -1.291923986424
 29      13.178363282757   -0.025735438666   -0.181017636747
 30       9.115252446877    1.341176851876   -2.257540988990
 31      11.421357588206    0.215594139642   -4.393290676142


------------------
SYMMETRY REDUCTION
------------------
ORCA supports only abelian point groups.
It is now checked, if the determined point group is supported:
Point Group ( C1    ) is          ... supported

The point group is C1 - hence turning off symmetry
If this is a round-off problem, please increase the symmetry
        detection tolerance (%method SymThresh)

Storing the symmetry object:
Symmetry file                     ... input_58.sym.tmp
Writing symmetry information      ... done

                       ****************************
                       * Single Point Calculation *
                       ****************************

---------------------------------
CARTESIAN COORDINATES (ANGSTROEM)
---------------------------------
  V     -0.487140   -0.947843   -0.333249
  S      1.362301   -1.547027    1.158833
  S     -1.635662   -0.179199    1.688495
  S      1.319402   -0.434715   -1.905520
  S     -1.694877    0.907844   -1.384701
  O     -1.179120   -2.306374   -0.807404
  C     -2.911314    0.889637    1.080122
  C     -2.934429    1.334393   -0.204150
  C      2.753372   -1.687779    0.077254
  C      2.736007   -1.224051   -1.200483
  S     -4.165866    1.340601    2.301458
  S     -4.207480    2.452427   -0.813158
  S      4.165541   -1.331882   -2.296031
  S      4.208532   -2.460826    0.812881
  C     -3.907827    4.014297    0.130181
  C      5.374763   -0.179065   -1.509756
  C     -3.831832    3.136644    2.560438
  C      5.409945   -1.063002    0.919788
  C     -4.477250    4.090505    1.521188
  H     -2.775819    3.528369    2.558049
  H     -4.225247    3.174640    3.596461
  H     -4.346527    5.122848    1.884292
  H     -5.559287    3.984707    1.245821
  H     -4.355319    4.914946   -0.341722
  H     -2.803727    3.995256   -0.054233
  C      6.194612   -0.749582   -0.352627
  H      6.108523   -1.351404    1.711634
  H      4.850932   -0.192115    1.268673
  H      6.710652   -1.657373   -0.683657
  H      6.973689   -0.013619   -0.095790
  H      4.823584    0.709720   -1.194639
  H      6.043922    0.114088   -2.324829

----------------------------
CARTESIAN COORDINATES (A.U.)
----------------------------
  NO LB      ZA    FRAG     MASS         X           Y           Z
   0 V    23.0000    0    50.940   -0.920560   -1.791164   -0.629749
   1 S    16.0000    0    32.060    2.574376   -2.923457    2.189877
   2 S    16.0000    0    32.060   -3.090952   -0.338637    3.190792
   3 S    16.0000    0    32.060    2.493308   -0.821493   -3.600910
   4 S    16.0000    0    32.060   -3.202852    1.715577   -2.616706
   5 O     8.0000    0    15.999   -2.228214   -4.358415   -1.525772
   6 C     6.0000    0    12.011   -5.501587    1.681170    2.041134
   7 C     6.0000    0    12.011   -5.545268    2.521638   -0.385787
   8 C     6.0000    0    12.011    5.203120   -3.189440    0.145989
   9 C     6.0000    0    12.011    5.170305   -2.313122   -2.268584
  10 S    16.0000    0    32.060   -7.872346    2.533369    4.349126
  11 S    16.0000    0    32.060   -7.950985    4.634415   -1.536645
  12 S    16.0000    0    32.060    7.871731   -2.516891   -4.338869
  13 S    16.0000    0    32.060    7.952974   -4.650287    1.536123
  14 C     6.0000    0    12.011   -7.384722    7.585921    0.246006
  15 C     6.0000    0    12.011   10.156830   -0.338384   -2.853025
  16 C     6.0000    0    12.011   -7.241113    5.927399    4.838527
  17 C     6.0000    0    12.011   10.223315   -2.008783    1.738148
  18 C     6.0000    0    12.011   -8.460776    7.729935    2.874629
  19 H     1.0000    0     1.008   -5.245539    6.667651    4.834013
  20 H     1.0000    0     1.008   -7.984560    5.999201    6.796327
  21 H     1.0000    0     1.008   -8.213746    9.680779    3.560795
  22 H     1.0000    0     1.008  -10.505530    7.530004    2.354260
  23 H     1.0000    0     1.008   -8.230359    9.287903   -0.645760
  24 H     1.0000    0     1.008   -5.298276    7.549940   -0.102485
  25 C     6.0000    0    12.011   11.706120   -1.416506   -0.666368
  26 H     1.0000    0     1.008   11.543436   -2.553783    3.234519
  27 H     1.0000    0     1.008    9.166934   -0.363045    2.397444
  28 H     1.0000    0     1.008   12.681294   -3.131981   -1.291924
  29 H     1.0000    0     1.008   13.178363   -0.025735   -0.181018
  30 H     1.0000    0     1.008    9.115252    1.341177   -2.257541
  31 H     1.0000    0     1.008   11.421358    0.215594   -4.393291

--------------------------------
INTERNAL COORDINATES (ANGSTROEM)
--------------------------------
 V      0   0   0     0.000000000000     0.00000000     0.00000000
 S      1   0   0     2.450665284564     0.00000000     0.00000000
 S      1   2   0     2.448951309881    85.87293830     0.00000000
 S      1   2   3     2.449270868423    83.42128760   145.68217213
 S      1   2   3     2.451072569795   144.89934457    72.39646561
 O      1   2   3     1.596641780936   107.44833862   252.42029232
 C      3   1   2     1.771953162641   104.09382864   161.49029778
 C      7   3   1     1.359299733800   122.27537180   347.10139215
 C      2   1   3     1.767682979158   103.93499456   198.78000268
 C      9   2   1     1.359395955928   122.54033358    13.72030887
 S      7   3   1     1.808018751290   114.71220385   167.31697347
 S      8   7   3     1.800429663352   122.32983336   181.52462813
 S     10   9   2     1.804277523912   122.69811317   178.57730172
 S      9   2   1     1.804505429839   114.78880904   192.41258883
 C     12   8   7     1.849085449874   103.73151802    65.88755741
 C     13  10   9     1.846464788113   102.88495353   292.66407046
 C     11   7   3     1.845107162302   102.23888848   111.12871787
 C     14   9   2     1.846275501805   102.94455482   248.62714044
 C     15  12   8     1.504975889148   116.93557150   278.04428772
 H     17  11   7     1.126328681088   120.52928388   323.07345860
 H     17  11   7     1.108856384943    95.75442036   207.22628225
 H     19  15  12     1.102117559868   107.88244901   188.37480190
 H     19  15  12     1.121528208388    97.66177904   298.50649787
 H     15  12   8     1.110905389743   113.75415455   160.15999919
 H     15  12   8     1.119556284525    93.52119536    46.55506278
 C     18  14   9     1.527407597725   116.19391047   277.36623107
 H     18  14   9     1.094625918992   104.93343133   156.67033683
 H     18  14   9     1.092089656351   106.80787116    42.39989006
 H     26  18  14     1.095427404764   108.88697995   304.53130602
 H     26  18  14     1.102075059140   107.82135425   188.88324982
 H     16  13  10     1.092261848791   107.48232417   317.96663751
 H     16  13  10     1.094558379691   104.50607253   203.62206723

---------------------------
INTERNAL COORDINATES (A.U.)
---------------------------
 V      0   0   0     0.000000000000     0.00000000     0.00000000
 S      1   0   0     4.631086233734     0.00000000     0.00000000
 S      1   2   0     4.627847290983    85.87293830     0.00000000
 S      1   2   3     4.628451169111    83.42128760   145.68217213
 S      1   2   3     4.631855891279   144.89934457    72.39646561
 O      1   2   3     3.017215699944   107.44833862   252.42029232
 C      3   1   2     3.348506199527   104.09382864   161.49029778
 C      7   3   1     2.568704230795   122.27537180   347.10139215
 C      2   1   3     3.340436722202   103.93499456   198.78000268
 C      9   2   1     2.568886064264   122.54033358    13.72030887
 S      7   3   1     3.416660284933   114.71220385   167.31697347
 S      8   7   3     3.402318987123   122.32983336   181.52462813
 S     10   9   2     3.409590389783   122.69811317   178.57730172
 S      9   2   1     3.410021069569   114.78880904   192.41258883
 C     12   8   7     3.494265098481   103.73151802    65.88755741
 C     13  10   9     3.489312765462   102.88495353   292.66407046
 C     11   7   3     3.486747224488   102.23888848   111.12871787
 C     14   9   2     3.488955066180   102.94455482   248.62714044
 C     15  12   8     2.843992268645   116.93557150   278.04428772
 H     17  11   7     2.128452744038   120.52928388   323.07345860
 H     17  11   7     2.095434889392    95.75442036   207.22628225
 H     19  15  12     2.082700355537   107.88244901   188.37480190
 H     19  15  12     2.119381165320    97.66177904   298.50649787
 H     15  12   8     2.099306947312   113.75415455   160.15999919
 H     15  12   8     2.115654769262    93.52119536    46.55506278
 C     18  14   9     2.886382054570   116.19391047   277.36623107
 H     18  14   9     2.068543205988   104.93343133   156.67033683
 H     18  14   9     2.063750364192   106.80787116    42.39989006
 H     26  18  14     2.070057794597   108.88697995   304.53130602
 H     26  18  14     2.082620040800   107.82135425   188.88324982
 H     16  13  10     2.064075760745   107.48232417   317.96663751
 H     16  13  10     2.068415575205   104.50607253   203.62206723

---------------------
BASIS SET INFORMATION
---------------------
There are 5 groups of distinct atoms

 Group   1 Type V   : 17s11p5d1f contracted to 17s7p3d1f pattern {11111111111111111/3311111/311/1}
 Group   2 Type S   : 14s9p1d contracted to 5s4p1d pattern {73211/6111/1}
 Group   3 Type O   : 11s6p1d contracted to 5s3p1d pattern {62111/411/1}
 Group   4 Type C   : 11s6p1d contracted to 5s3p1d pattern {62111/411/1}
 Group   5 Type H   : 5s1p contracted to 3s1p pattern {311/1}

Atom   0V    basis set group =>   1
Atom   1S    basis set group =>   2
Atom   2S    basis set group =>   2
Atom   3S    basis set group =>   2
Atom   4S    basis set group =>   2
Atom   5O    basis set group =>   3
Atom   6C    basis set group =>   4
Atom   7C    basis set group =>   4
Atom   8C    basis set group =>   4
Atom   9C    basis set group =>   4
Atom  10S    basis set group =>   2
Atom  11S    basis set group =>   2
Atom  12S    basis set group =>   2
Atom  13S    basis set group =>   2
Atom  14C    basis set group =>   4
Atom  15C    basis set group =>   4
Atom  16C    basis set group =>   4
Atom  17C    basis set group =>   4
Atom  18C    basis set group =>   4
Atom  19H    basis set group =>   5
Atom  20H    basis set group =>   5
Atom  21H    basis set group =>   5
Atom  22H    basis set group =>   5
Atom  23H    basis set group =>   5
Atom  24H    basis set group =>   5
Atom  25C    basis set group =>   4
Atom  26H    basis set group =>   5
Atom  27H    basis set group =>   5
Atom  28H    basis set group =>   5
Atom  29H    basis set group =>   5
Atom  30H    basis set group =>   5
Atom  31H    basis set group =>   5

-------------------------
BASIS SET IN INPUT FORMAT
-------------------------

 # Basis set for element : H 
 NewGTO H 
 S 3 
   1      34.0613410000      0.0254393168
   2       5.1235746000      0.1900859340
   3       1.1646626000      0.8524411390
 S 1 
   1       0.3272304100      1.0000000000
 S 1 
   1       0.1030724100      1.0000000000
 P 1 
   1       0.8000000000      1.0000000000
  end;

 # Basis set for element : C 
 NewGTO C 
 S 6 
   1   13575.3496820000      0.0006064601
   2    2035.2333680000      0.0046978985
   3     463.2256235900      0.0243324735
   4     131.2001959800      0.0973999560
   5      42.8530158900      0.3019558443
   6      15.5841857700      0.6623361013
 S 2 
   1       6.2067138500      0.6559530795
   2       2.5764896500      0.3758563390
 S 1 
   1       0.5769633900      1.0000000000
 S 1 
   1       0.2297283100      1.0000000000
 S 1 
   1       0.0951644400      1.0000000000
 P 4 
   1      34.6972322400      0.0113272290
   2       7.9582622800      0.0761696612
   3       2.3780826900      0.3019225154
   4       0.8143320800      0.7278502776
 P 1 
   1       0.2888754700      1.0000000000
 P 1 
   1       0.1005682400      1.0000000000
 D 1 
   1       0.8000000000      1.0000000000
  end;

 # Basis set for element : O 
 NewGTO O 
 S 6 
   1   27032.3826310000      0.0005722654
   2    4052.3871392000      0.0044353333
   3     922.3272271000      0.0230201034
   4     261.2407098900      0.0928224938
   5      85.3546413500      0.2937849971
   6      31.0350352400      0.6740160462
 S 2 
   1      12.2608607300      0.6383993750
   2       4.9987076000      0.3953458663
 S 1 
   1       1.1703108200      1.0000000000
 S 1 
   1       0.4647474100      1.0000000000
 S 1 
   1       0.1850453600      1.0000000000
 P 4 
   1      63.2749548000      0.0120183316
   2      14.6270493800      0.0830054304
   3       4.4501223500      0.3199174388
   4       1.5275799600      0.7071554258
 P 1 
   1       0.5293511800      1.0000000000
 P 1 
   1       0.1747842100      1.0000000000
 D 1 
   1       1.2000000000      1.0000000000
  end;

 # Basis set for element : S 
 NewGTO S 
 S 7 
   1   60700.9281040000      0.0005238013
   2    9102.6106854000      0.0040506304
   3    2071.4166009000      0.0208270003
   4     586.0247682100      0.0814968475
   5     190.5539502100      0.2374911358
   6      67.6303842600      0.4472617145
   7      25.1273069100      0.3489191913
 S 3 
   1     112.5746301000      0.1004556993
   2      34.7955542200      0.4339117282
   3       6.5115556200     -1.2084330582
 S 2 
   1       3.2399032300      0.6749812922
   2       1.5477160900      0.3470879597
 S 1 
   1       0.4054103000      1.0000000000
 S 1 
   1       0.1455065100      1.0000000000
 P 6 
   1     564.3671602700      0.0025564845
   2     133.4262437900      0.0202874255
   3      42.4682711900      0.0927670112
   4      15.6165275800      0.2650208365
   5       6.1093988500      0.4486298663
   6       2.4404160200      0.3596369916
 P 1 
   1       0.8388220100      1.0000000000
 P 1 
   1       0.3128874700      1.0000000000
 P 1 
   1       0.1077010900      1.0000000000
 D 1 
   1       0.5500000000      1.0000000000
  end;

 # Basis set for element : V 
 NewGTO V 
 S 1 
   1  4239814.9912500000      1.0000000000
 S 1 
   1  1695925.9965000001      1.0000000000
 S 1 
   1  678370.3986000001      1.0000000000
 S 1 
   1  271348.1594400000      1.0000000000
 S 1 
   1   40672.0050780000      1.0000000000
 S 1 
   1    9257.0761385000      1.0000000000
 S 1 
   1    2622.7328773000      1.0000000000
 S 1 
   1     858.5948018500      1.0000000000
 S 1 
   1     314.1941865000      1.0000000000
 S 1 
   1     124.4786212700      1.0000000000
 S 1 
   1      50.4693993090      1.0000000000
 S 1 
   1      12.5138469110      1.0000000000
 S 1 
   1       5.3447758082      1.0000000000
 S 1 
   1       1.5755631295      1.0000000000
 S 1 
   1       0.6306903307      1.0000000000
 S 1 
   1       0.0879544416      1.0000000000
 S 1 
   1       0.0342969197      1.0000000000
 P 3 
   1    1450.0319327000     -0.0222847647
   2     343.7504988400     -0.1817959329
   3     110.8252170800     -0.8607412073
 P 3 
   1      41.8224645460     -0.2522537814
   2      17.0880737100     -0.4620379520
   3       7.2613218939     -0.3990010670
 P 1 
   1       2.9458145262      1.0000000000
 P 1 
   1       1.1650209680      1.0000000000
 P 1 
   1       0.4339937839      1.0000000000
 D 3 
   1      27.3603358640      0.0575501019
   2       7.4542765527      0.3023798347
   3       2.4632270217      0.7724212088
 D 1 
   1       0.8249954244      1.0000000000
 D 1 
   1       0.2526297057      1.0000000000
 P 1 
   1       0.1112480000      1.0000000000
 P 1 
   1       0.0363780000      1.0000000000
 F 1 
   1       1.8000000000      1.0000000000
  end;

---------------------------------
AUXILIARY/J BASIS SET INFORMATION
---------------------------------
There are 5 groups of distinct atoms

 Group   1 Type V   : 19s5p5d3f3g contracted to 8s5p5d2f3g pattern {121111111/11111/11111/21/111}
 Group   2 Type S   : 14s5p5d2f1g contracted to 8s4p3d1f1g pattern {71111111/2111/311/2/1}
 Group   3 Type O   : 12s5p4d2f1g contracted to 6s4p3d1f1g pattern {711111/2111/211/2/1}
 Group   4 Type C   : 12s5p4d2f1g contracted to 6s4p3d1f1g pattern {711111/2111/211/2/1}
 Group   5 Type H   : 5s2p1d contracted to 3s1p1d pattern {311/2/1}

Atom   0V    basis set group =>   1
Atom   1S    basis set group =>   2
Atom   2S    basis set group =>   2
Atom   3S    basis set group =>   2
Atom   4S    basis set group =>   2
Atom   5O    basis set group =>   3
Atom   6C    basis set group =>   4
Atom   7C    basis set group =>   4
Atom   8C    basis set group =>   4
Atom   9C    basis set group =>   4
Atom  10S    basis set group =>   2
Atom  11S    basis set group =>   2
Atom  12S    basis set group =>   2
Atom  13S    basis set group =>   2
Atom  14C    basis set group =>   4
Atom  15C    basis set group =>   4
Atom  16C    basis set group =>   4
Atom  17C    basis set group =>   4
Atom  18C    basis set group =>   4
Atom  19H    basis set group =>   5
Atom  20H    basis set group =>   5
Atom  21H    basis set group =>   5
Atom  22H    basis set group =>   5
Atom  23H    basis set group =>   5
Atom  24H    basis set group =>   5
Atom  25C    basis set group =>   4
Atom  26H    basis set group =>   5
Atom  27H    basis set group =>   5
Atom  28H    basis set group =>   5
Atom  29H    basis set group =>   5
Atom  30H    basis set group =>   5
Atom  31H    basis set group =>   5

-------------------------------------
AUXILIARY/J BASIS SET IN INPUT FORMAT
-------------------------------------

 # Auxiliary/J basis set for element : H 
 NewAuxJGTO H 
 S 3 
   1      15.6752927000      0.1007184237
   2       3.6063578000      0.3404257499
   3       1.2080016000      0.6491996172
 S 1 
   1       0.4726794000      1.0000000000
 S 1 
   1       0.2018100000      1.0000000000
 P 2 
   1       2.0281365000      0.5596620919
   2       0.5358730000      0.5596620919
 D 1 
   1       2.2165124000      1.0000000000
  end;

 # Auxiliary/J basis set for element : C 
 NewAuxJGTO C 
 S 7 
   1    1861.0916331000      0.0134602335
   2     642.9939764000      0.0299160374
   3     235.1105725000      0.1008649584
   4      90.7028894000      0.2370970548
   5      36.7794552000      0.3924037254
   6      15.6046273000      0.3195862154
   7       6.8907294000      0.0530104441
 S 1 
   1       3.1478850000     -1.0000000000
 S 1 
   1       1.4777287000      1.0000000000
 S 1 
   1       0.7076466000      1.0000000000
 S 1 
   1       0.3430122000      1.0000000000
 S 1 
   1       0.1669453000      1.0000000000
 P 2 
   1      13.5472892000     -0.6769313712
   2       5.4669419000     -0.3779500978
 P 1 
   1       2.1751721000      1.0000000000
 P 1 
   1       0.8582194000      1.0000000000
 P 1 
   1       0.3376720000      1.0000000000
 D 2 
   1       5.9287253000     -0.3533329857
   2       1.9809209000     -0.7456525731
 D 1 
   1       0.8055417000     -1.0000000000
 D 1 
   1       0.3531244000     -1.0000000000
 F 2 
   1       1.6755626000      0.6311076882
   2       0.5997536000      0.4968166032
 G 1 
   1       1.0024600000     -1.0000000000
  end;

 # Auxiliary/J basis set for element : O 
 NewAuxJGTO O 
 S 7 
   1    2876.8216605000      0.0168151159
   2    1004.7443032000      0.0340137548
   3     369.7579954000      0.1194951309
   4     142.9442404000      0.2664627624
   5      57.8366425000      0.4202764046
   6      24.3864983000      0.2765077335
   7      10.6622662000      0.0057008815
 S 1 
   1       4.8070437000     -1.0000000000
 S 1 
   1       2.2210770000      1.0000000000
 S 1 
   1       1.0447795000      1.0000000000
 S 1 
   1       0.4968425000      1.0000000000
 S 1 
   1       0.2371384000      1.0000000000
 P 2 
   1      64.2613382000     -0.2731534179
   2      16.3006076000     -0.8168011598
 P 1 
   1       4.3550542000      1.0000000000
 P 1 
   1       1.2019554000      1.0000000000
 P 1 
   1       0.3354196000      1.0000000000
 D 2 
   1       9.2146611000     -0.4661230638
   2       2.8435251000     -0.6600908911
 D 1 
   1       0.9955759000     -1.0000000000
 D 1 
   1       0.3649441000     -1.0000000000
 F 2 
   1       2.6420115000      0.5931563945
   2       0.7345613000      0.5931563945
 G 1 
   1       1.3931000000     -1.0000000000
  end;

 # Auxiliary/J basis set for element : S 
 NewAuxJGTO S 
 S 7 
   1    7399.0303145000      0.0295137551
   2    2710.1675859000      0.0559686311
   3    1034.3279062000      0.1764696370
   4     410.4645411000      0.3577969368
   5     168.9762502000      0.4299293578
   6      71.9687889000      0.1259148089
   7      31.6172683000     -0.0646025788
 S 1 
   1      14.2796836000      1.0000000000
 S 1 
   1       6.6060948000      1.0000000000
 S 1 
   1       3.1181477000      1.0000000000
 S 1 
   1       1.4954039000     -1.0000000000
 S 1 
   1       0.7254779000      1.0000000000
 S 1 
   1       0.3544216000      1.0000000000
 S 1 
   1       0.1735525000      1.0000000000
 P 2 
   1      12.6998799000      1.4059102813
   2       4.4295784000     -1.2124994202
 P 1 
   1       1.5232889000      1.0000000000
 P 1 
   1       0.5194667000     -1.0000000000
 P 1 
   1       0.1766547000     -1.0000000000
 D 3 
   1      16.8546461000      1.0295742104
   2       5.0810461000     -0.7461553923
   3       1.5102323000      0.8357028005
 D 1 
   1       0.4451331000      1.0000000000
 D 1 
   1       0.1308362000      1.0000000000
 F 2 
   1       1.0809860000      0.5572698934
   2       0.4161474000      0.5572698934
 G 1 
   1       0.6707100000     -1.0000000000
  end;

 # Auxiliary/J basis set for element : V 
 NewAuxJGTO V 
 S 12 
   1   11942.0842430000      0.0459866720
   2    2430.7110193000      0.1744615821
   3     841.0764301000      0.2900402792
   4     494.7508273000      0.1411212903
   5     291.0298903000      0.2660697186
   6     171.1940483000      0.0446365706
   7      59.2366916000     -0.0408204801
   8      34.8451117000      0.1394665381
   9      20.4971240000      0.2164746715
  10      12.0571314000      0.0864266611
  11       7.0924300000     -0.0568501658
  12       4.1720176000     -0.0126212852
 S 1 
   1       2.4541279000      1.0000000000
 S 1 
   1       1.4436046000      1.0000000000
 S 1 
   1       0.8491792000      1.0000000000
 S 1 
   1       0.2938336000      1.0000000000
 S 1 
   1       0.1728433000      1.0000000000
 S 1 
   1       0.1016725000      1.0000000000
 S 1 
   1       0.0598074000      1.0000000000
 P 1 
   1      16.7130979000     -1.0000000000
 P 1 
   1       4.7454037000     -1.0000000000
 P 1 
   1       1.3889998000      1.0000000000
 P 1 
   1       0.4142440000     -1.0000000000
 P 1 
   1       0.1243234000      1.0000000000
 D 1 
   1       7.7143225000      1.0000000000
 D 1 
   1       3.1170731000      1.0000000000
 D 1 
   1       1.2767950000     -1.0000000000
 D 1 
   1       0.5273386000      1.0000000000
 D 1 
   1       0.2184050000      1.0000000000
 F 2 
   1       3.1309344000     -1.0825667766
   2       1.0419780000      0.1809223232
 F 1 
   1       0.3559044000      1.0000000000
 G 1 
   1       8.7130110000      1.0000000000
 G 1 
   1       2.7493872000      1.0000000000
 G 1 
   1       0.8775089000      1.0000000000
  end;



           ************************************************************
           *        Program running with 8 parallel MPI-processes     *
           *              working on a common directory               *
           ************************************************************
------------------------------------------------------------------------------
                           ORCA GTO INTEGRAL CALCULATION
                           -- RI-GTO INTEGRALS CHOSEN --
------------------------------------------------------------------------------
------------------------------------------------------------------------------
                   ___                                                        
                  /   \      - P O W E R E D   B Y -                         
                 /     \                                                     
                 |  |  |   _    _      __       _____    __    __             
                 |  |  |  | |  | |    /  \     |  _  \  |  |  /  |          
                  \  \/   | |  | |   /    \    | | | |  |  | /  /          
                 / \  \   | |__| |  /  /\  \   | |_| |  |  |/  /          
                |  |  |   |  __  | /  /__\  \  |    /   |      \           
                |  |  |   | |  | | |   __   |  |    \   |  |\   \          
                \     /   | |  | | |  |  |  |  | |\  \  |  | \   \       
                 \___/    |_|  |_| |__|  |__|  |_| \__\ |__|  \__/        
                                                                              
                      - O R C A' S   B I G   F R I E N D -                    
                                      &                                       
                       - I N T E G R A L  F E E D E R -                       
                                                                              
 v1 FN, 2020, v2 2021                                                         
------------------------------------------------------------------------------


Reading SHARK input file input_58.SHARKINP.tmp ... ok
----------------------
SHARK INTEGRAL PACKAGE
----------------------

Number of atoms                             ...     32
Number of basis functions                   ...    517
Number of shells                            ...    255
Maximum angular momentum                    ...      3
Integral batch strategy                     ... SHARK/LIBINT Hybrid
RI-J (if used) integral strategy            ... SPLIT-RIJ (Revised 2003 algorithm where possible)
Printlevel                                  ...      1
Contraction scheme used                     ... SEGMENTED contraction
Coulomb Range Separation                    ... NOT USED
Exchange Range Separation                   ... NOT USED
Finite Nucleus Model                        ... NOT USED
Auxiliary Coulomb fitting basis             ... AVAILABLE
   # of basis functions in Aux-J            ...   1168
   # of shells in Aux-J                     ...    384
   Maximum angular momentum in Aux-J        ...      4
Auxiliary J/K fitting basis                 ... NOT available
Auxiliary Correlation fitting basis         ... NOT available
Auxiliary 'external' fitting basis          ... NOT available
Integral threshold                          ...     1.000000e-10
Primitive cut-off                           ...     1.000000e-11
Primitive pair pre-selection threshold      ...     1.000000e-11

Calculating pre-screening integrals         ... done (  0.1 sec) Dimension = 255
Organizing shell pair data                  ... done (  0.1 sec)
Shell pair information
Total number of shell pairs                 ...     32640
Shell pairs after pre-screening             ...     17844
Total number of primitive shell pairs       ...    123863
Primitive shell pairs kept                  ...     41676
          la=0 lb=0:   5383 shell pairs
          la=1 lb=0:   7071 shell pairs
          la=1 lb=1:   2303 shell pairs
          la=2 lb=0:   1674 shell pairs
          la=2 lb=1:   1121 shell pairs
          la=2 lb=2:    154 shell pairs
          la=3 lb=0:     73 shell pairs
          la=3 lb=1:     52 shell pairs
          la=3 lb=2:     12 shell pairs
          la=3 lb=3:      1 shell pairs

Calculating one electron integrals          ... done (  0.0 sec)
Calculating RI/J V-Matrix + Cholesky decomp.... done (  0.1 sec)
Calculating Nuclear repulsion               ... done (  0.0 sec) ENN=   3211.875938788209 Eh

SHARK setup successfully completed in   0.5 seconds

Maximum memory used throughout the entire GTOINT-calculation: 31.6 MB


           ************************************************************
           *        Program running with 8 parallel MPI-processes     *
           *              working on a common directory               *
           ************************************************************
-------------------------------------------------------------------------------
                                 ORCA SCF
-------------------------------------------------------------------------------

------------
SCF SETTINGS
------------
Hamiltonian:
 Density Functional     Method          .... DFT(GTOs)
 Exchange Functional    Exchange        .... B88
   X-Alpha parameter    XAlpha          ....  0.666667
   Becke's b parameter  XBeta           ....  0.004200
 Correlation Functional Correlation     .... LYP
 LDA part of GGA corr.  LDAOpt          .... VWN-5
 Gradients option       PostSCFGGA      .... off
 Hybrid DFT is turned on
   Fraction HF Exchange ScalHFX         ....  0.200000
   Scaling of DF-GGA-X  ScalDFX         ....  0.720000
   Scaling of DF-GGA-C  ScalDFC         ....  0.810000
   Scaling of DF-LDA-C  ScalLDAC        ....  1.000000
   Perturbative correction              ....  0.000000
   Density functional embedding theory  .... OFF
   NL short-range parameter             ....  4.800000
 RI-approximation to the Coulomb term is turned on
   Number of AuxJ basis functions       .... 1168
   RIJ-COSX (HFX calculated with COS-X)).... on


General Settings:
 Integral files         IntName         .... input_58
 Hartree-Fock type      HFTyp           .... UHF
 Total Charge           Charge          ....   -2
 Multiplicity           Mult            ....    2
 Number of Electrons    NEL             ....  233
 Basis Dimension        Dim             ....  517
 Nuclear Repulsion      ENuc            ....   3211.8759387882 Eh

Convergence Acceleration:
 DIIS                   CNVDIIS         .... on
   Start iteration      DIISMaxIt       ....    12
   Startup error        DIISStart       ....  0.200000
   # of expansion vecs  DIISMaxEq       ....     5
   Bias factor          DIISBfac        ....   1.050
   Max. coefficient     DIISMaxC        ....  10.000
 Trust-Rad. Augm. Hess. CNVTRAH         .... auto
   Auto Start mean grad. ratio tolernc. ....  1.125000
   Auto Start start iteration           ....    20
   Auto Start num. interpolation iter.  ....    10
   Max. Number of Micro iterations      ....    16
   Max. Number of Macro iterations      .... Maxiter - #DIIS iter
   Number of Davidson start vectors     ....     2
   Converg. threshold I  (grad. norm)   ....   5.000e-05
   Converg. threshold II (energy diff.) ....   1.000e-06
   Grad. Scal. Fac. for Micro threshold ....   0.100
   Minimum threshold for Micro iter.    ....   0.010
   NR start threshold (gradient norm)   ....   0.001
   Initial trust radius                 ....   0.400
   Minimum AH scaling param. (alpha)    ....   1.000
   Maximum AH scaling param. (alpha)    .... 1000.000
   Orbital update algorithm             .... Taylor
   White noise on init. David. guess    .... on
   Maximum white noise                  ....   0.010
   Quad. conv. algorithm                .... NR
 SOSCF                  CNVSOSCF        .... off
 Level Shifting         CNVShift        .... on
   Level shift para.    LevelShift      ....    0.2500
   Turn off err/grad.   ShiftErr        ....    0.0010
 Zerner damping         CNVZerner       .... off
 Static damping         CNVDamp         .... on
   Fraction old density DampFac         ....    0.7000
   Max. Damping (<1)    DampMax         ....    0.9800
   Min. Damping (>=0)   DampMin         ....    0.0000
   Turn off err/grad.   DampErr         ....    0.1000
 Fernandez-Rico         CNVRico         .... off

SCF Procedure:
 Maximum # iterations   MaxIter         ....   125
 SCF integral mode      SCFMode         .... Direct
   Integral package                     .... SHARK and LIBINT hybrid scheme
 Reset frequency        DirectResetFreq ....    20
 Integral Threshold     Thresh          ....  1.000e-10 Eh
 Primitive CutOff       TCut            ....  1.000e-11 Eh

Convergence Tolerance:
 Convergence Check Mode ConvCheckMode   .... Total+1el-Energy
 Convergence forced     ConvForced      .... 0
 Energy Change          TolE            ....  1.000e-06 Eh
 1-El. energy change                    ....  1.000e-03 Eh
 DIIS Error             TolErr          ....  1.000e-06


Diagonalization of the overlap matrix:
Smallest eigenvalue                        ... 1.809e-04
Time for diagonalization                   ...    0.086 sec
Threshold for overlap eigenvalues          ... 1.000e-08
Number of eigenvalues below threshold      ... 0
Time for construction of square roots      ...    0.114 sec
Total time needed                          ...    0.201 sec

Time for model grid setup =    0.268 sec

------------------------------
INITIAL GUESS: MODEL POTENTIAL
------------------------------
Loading Hartree-Fock densities                     ... done
Calculating cut-offs                               ... done
Initializing the effective Hamiltonian             ... done
Setting up the integral package (SHARK)            ... done
Starting the Coulomb interaction                   ... done (   0.2 sec)
Reading the grid                                   ... done
Mapping shells                                     ... done
Starting the XC term evaluation                    ... done (   0.1 sec)
  promolecular density results
     # of electrons  =    230.993806731
     EX              =   -307.540587223
     EC              =     -9.026826403
     EX+EC           =   -316.567413625
Transforming the Hamiltonian                       ... done (   0.1 sec)
Diagonalizing the Hamiltonian                      ... done (   0.1 sec)
Back transforming the eigenvectors                 ... done (   0.0 sec)
Now organizing SCF variables                       ... done
                      ------------------
                      INITIAL GUESS DONE (   0.8 sec)
                      ------------------
-------------------
DFT GRID GENERATION
-------------------

General Integration Accuracy     IntAcc      ... 4.388
Radial Grid Type                 RadialGrid  ... OptM3 with GC (2021)
Angular Grid (max. ang.)         AngularGrid ... 4 (Lebedev-302)
Angular grid pruning method      GridPruning ... 4 (adaptive)
Weight generation scheme         WeightScheme... Becke
Basis function cutoff            BFCut       ... 1.0000e-10
Integration weight cutoff        WCut        ... 1.0000e-14
Angular grids for H and He will be reduced by one unit
Partially contracted basis set               ... off
Rotationally invariant grid construction     ... off

Total number of grid points                  ...   184157
Total number of batches                      ...     2894
Average number of points per batch           ...       63
Average number of grid points per atom       ...     5755
Time for grid setup =    1.341 sec

--------------------
COSX GRID GENERATION
--------------------

GRIDX 1
-------
General Integration Accuracy     IntAcc      ... 3.816
Radial Grid Type                 RadialGrid  ... OptM3 with GC (2021)
Angular Grid (max. ang.)         AngularGrid ... 1 (Lebedev-50)
Angular grid pruning method      GridPruning ... 4 (adaptive)
Weight generation scheme         WeightScheme... Becke
Basis function cutoff            BFCut       ... 1.0000e-10
Integration weight cutoff        WCut        ... 1.0000e-14
Angular grids for H and He will be reduced by one unit
Partially contracted basis set               ... on
Rotationally invariant grid construction     ... off

Total number of grid points                  ...    22821
Total number of batches                      ...      375
Average number of points per batch           ...       60
Average number of grid points per atom       ...      713
UseSFitting                                  ... on

GRIDX 2
-------
General Integration Accuracy     IntAcc      ... 4.020
Radial Grid Type                 RadialGrid  ... OptM3 with GC (2021)
Angular Grid (max. ang.)         AngularGrid ... 2 (Lebedev-110)
Angular grid pruning method      GridPruning ... 4 (adaptive)
Weight generation scheme         WeightScheme... Becke
Basis function cutoff            BFCut       ... 1.0000e-10
Integration weight cutoff        WCut        ... 1.0000e-14
Angular grids for H and He will be reduced by one unit
Partially contracted basis set               ... on
Rotationally invariant grid construction     ... off

Total number of grid points                  ...    49184
Total number of batches                      ...      787
Average number of points per batch           ...       62
Average number of grid points per atom       ...     1537
UseSFitting                                  ... on

GRIDX 3
-------
General Integration Accuracy     IntAcc      ... 4.338
Radial Grid Type                 RadialGrid  ... OptM3 with GC (2021)
Angular Grid (max. ang.)         AngularGrid ... 3 (Lebedev-194)
Angular grid pruning method      GridPruning ... 4 (adaptive)
Weight generation scheme         WeightScheme... Becke
Basis function cutoff            BFCut       ... 1.0000e-10
Integration weight cutoff        WCut        ... 1.0000e-14
Angular grids for H and He will be reduced by one unit
Partially contracted basis set               ... on
Rotationally invariant grid construction     ... off

Total number of grid points                  ...   112117
Total number of batches                      ...     1767
Average number of points per batch           ...       63
Average number of grid points per atom       ...     3504
UseSFitting                                  ... on

Time for X-Grid setup             =    1.271 sec

--------------
SCF ITERATIONS
--------------
ITER       Energy         Delta-E        Max-DP      RMS-DP      [F,P]     Damp
               ***  Starting incremental Fock matrix formation  ***
  0  -4591.9937087120   0.000000000000 0.06960093  0.00090593  0.2313583 0.7000
  1  -4592.2770595442  -0.283350832146 0.11166004  0.00089969  0.1560094 0.7000
                               ***Turning on DIIS***
  2  -4592.4224048705  -0.145345326370 0.08027367  0.00056430  0.1091665 0.7000
  3  -4592.5023757239  -0.079970853340 0.11144636  0.00088990  0.0772179 0.0000
  4  -4592.6917338951  -0.189358171231 0.06742280  0.00048320  0.0147854 0.0000
  5  -4592.6972529934  -0.005519098347 0.01184351  0.00010263  0.0108488 0.0000
  6  -4592.6984152110  -0.001162217546 0.00193464  0.00004410  0.0028326 0.0000
  7  -4592.6986088898  -0.000193678852 0.00139853  0.00002182  0.0013626 0.0000
  8  -4592.6986730509  -0.000064161035 0.00122081  0.00001569  0.0012264 0.0000
  9  -4592.6987086648  -0.000035613879 0.00236409  0.00002217  0.0008664 0.0000
               *** Restarting incremental Fock matrix formation ***
                                   *** Resetting DIIS ***
 10  -4592.6987458258  -0.000037161016 0.00144352  0.00001489  0.0007617 0.0000
 11  -4592.6987155928   0.000030232929 0.00034040  0.00000389  0.0023144 0.0000
 12  -4592.6987513846  -0.000035791775 0.00057762  0.00000597  0.0009570 0.0000
 13  -4592.6987589826  -0.000007598022 0.00042241  0.00000394  0.0002980 0.0000
 14  -4592.6987616885  -0.000002705874 0.00030036  0.00000270  0.0001820 0.0000
 15  -4592.6987623821  -0.000000693638 0.00015605  0.00000169  0.0001234 0.0000
 16  -4592.6987625647  -0.000000182591 0.00019436  0.00000155  0.0001069 0.0000
                 **** Energy Check signals convergence ****

               *****************************************************
               *                     SUCCESS                       *
               *           SCF CONVERGED AFTER  17 CYCLES          *
               *****************************************************

Old exchange energy                            =    -61.756273270 Eh
New exchange energy                            =    -61.756276992 Eh
Exchange energy change after final integration =     -0.000003722 Eh
Total energy after final integration           =  -4592.698766512 Eh
Final COS-X integration done in                =    12.556 sec

----------------
TOTAL SCF ENERGY
----------------

Total Energy       :        -4592.69876651 Eh         -124973.68698 eV

Components:
Nuclear Repulsion  :         3211.87593879 Eh           87399.58760 eV
Electronic Energy  :        -7804.57470530 Eh         -212373.27458 eV
One Electron Energy:       -12787.39745696 Eh         -347962.77489 eV
Two Electron Energy:         4982.82275166 Eh          135589.50031 eV
Max COSX asymmetry :            0.00000133 Eh               0.00004 eV

Virial components:
Potential Energy   :        -9173.72207626 Eh         -249629.66862 eV
Kinetic Energy     :         4581.02330975 Eh          124655.98165 eV
Virial Ratio       :            2.00254866


DFT components:
N(Alpha)           :      116.999999051212 electrons
N(Beta)            :      115.999996028977 electrons
N(Total)           :      232.999995080188 electrons
E(X)               :     -245.468216177356 Eh       
E(C)               :      -10.624135226858 Eh       
E(XC)              :     -256.092351404214 Eh       
DFET-embed. en.    :        0.000000000000 Eh       

---------------
SCF CONVERGENCE
---------------

  Last Energy change         ...   -2.2473e-07  Tolerance :   1.0000e-06
  Last MAX-Density change    ...    0.0000e+00  Tolerance :   1.0000e-05
  Last RMS-Density change    ...    0.0000e+00  Tolerance :   1.0000e-06
  Last DIIS Error            ...    2.1219e-05  Tolerance :   1.0000e-06

             **** THE GBW FILE WAS UPDATED (input_58.gbw) ****
             **** DENSITY input_58.scfp WAS UPDATED ****
             **** ENERGY FILE WAS UPDATED (input_58.en.tmp) ****
----------------------
UHF SPIN CONTAMINATION
----------------------

Warning: in a DFT calculation there is little theoretical justification to 
         calculate <S**2> as in Hartree-Fock theory. We will do it anyways
         but you should keep in mind that the values have only limited relevance

Expectation value of <S**2>     :     0.764838
Ideal value S*(S+1) for S=0.5   :     0.750000
Deviation                       :     0.014838

             **** THE GBW FILE WAS UPDATED (input_58.gbw) ****
             **** DENSITY input_58.scfp WAS UPDATED ****
----------------
ORBITAL ENERGIES
----------------
                 SPIN UP ORBITALS
  NO   OCC          E(Eh)            E(eV) 
   0   1.0000    -196.640460     -5350.8589 
   1   1.0000     -88.681267     -2413.1399 
   2   1.0000     -88.676665     -2413.0147 
   3   1.0000     -88.676478     -2413.0096 
   4   1.0000     -88.674529     -2412.9566 
   5   1.0000     -88.612715     -2411.2746 
   6   1.0000     -88.612432     -2411.2669 
   7   1.0000     -88.612145     -2411.2590 
   8   1.0000     -88.612090     -2411.2575 
   9   1.0000     -22.016265      -599.0930 
  10   1.0000     -18.857515      -513.1391 
  11   1.0000     -18.523092      -504.0390 
  12   1.0000     -18.517315      -503.8818 
  13   1.0000     -18.517277      -503.8807 
  14   1.0000     -10.023906      -272.7644 
  15   1.0000     -10.016778      -272.5704 
  16   1.0000     -10.015483      -272.5352 
  17   1.0000     -10.015320      -272.5307 
  18   1.0000     -10.008759      -272.3522 
  19   1.0000     -10.004689      -272.2414 
  20   1.0000      -9.992628      -271.9132 
  21   1.0000      -9.991964      -271.8952 
  22   1.0000      -9.991610      -271.8855 
  23   1.0000      -9.991254      -271.8758 
  24   1.0000      -7.734648      -210.4705 
  25   1.0000      -7.730318      -210.3527 
  26   1.0000      -7.730140      -210.3478 
  27   1.0000      -7.728403      -210.3005 
  28   1.0000      -7.667196      -208.6350 
  29   1.0000      -7.666797      -208.6242 
  30   1.0000      -7.666608      -208.6190 
  31   1.0000      -7.666544      -208.6173 
  32   1.0000      -5.699996      -155.1048 
  33   1.0000      -5.696057      -154.9976 
  34   1.0000      -5.695561      -154.9841 
  35   1.0000      -5.695388      -154.9794 
  36   1.0000      -5.693579      -154.9302 
  37   1.0000      -5.691673      -154.8783 
  38   1.0000      -5.691485      -154.8732 
  39   1.0000      -5.689700      -154.8246 
  40   1.0000      -5.689295      -154.8136 
  41   1.0000      -5.685066      -154.6985 
  42   1.0000      -5.684893      -154.6938 
  43   1.0000      -5.683198      -154.6477 
  44   1.0000      -5.632022      -153.2551 
  45   1.0000      -5.631661      -153.2453 
  46   1.0000      -5.631430      -153.2390 
  47   1.0000      -5.631373      -153.2374 
  48   1.0000      -5.625625      -153.0810 
  49   1.0000      -5.625225      -153.0702 
  50   1.0000      -5.625195      -153.0693 
  51   1.0000      -5.625040      -153.0651 
  52   1.0000      -5.624984      -153.0636 
  53   1.0000      -5.624779      -153.0580 
  54   1.0000      -5.624589      -153.0528 
  55   1.0000      -5.624523      -153.0510 
  56   1.0000      -2.409947       -65.5780 
  57   1.0000      -1.451309       -39.4921 
  58   1.0000      -1.439733       -39.1771 
  59   1.0000      -1.438648       -39.1476 
  60   1.0000      -0.644885       -17.5482 
  61   1.0000      -0.643906       -17.5216 
  62   1.0000      -0.618565       -16.8320 
  63   1.0000      -0.594983       -16.1903 
  64   1.0000      -0.593689       -16.1551 
  65   1.0000      -0.576251       -15.6806 
  66   1.0000      -0.575983       -15.6733 
  67   1.0000      -0.493682       -13.4338 
  68   1.0000      -0.490513       -13.3475 
  69   1.0000      -0.487306       -13.2603 
  70   1.0000      -0.485427       -13.2091 
  71   1.0000      -0.423632       -11.5276 
  72   1.0000      -0.420758       -11.4494 
  73   1.0000      -0.411869       -11.2075 
  74   1.0000      -0.405819       -11.0429 
  75   1.0000      -0.375226       -10.2104 
  76   1.0000      -0.369989       -10.0679 
  77   1.0000      -0.297213        -8.0876 
  78   1.0000      -0.292877        -7.9696 
  79   1.0000      -0.278723        -7.5844 
  80   1.0000      -0.277724        -7.5573 
  81   1.0000      -0.259562        -7.0630 
  82   1.0000      -0.253299        -6.8926 
  83   1.0000      -0.242172        -6.5898 
  84   1.0000      -0.239697        -6.5225 
  85   1.0000      -0.195620        -5.3231 
  86   1.0000      -0.193046        -5.2530 
  87   1.0000      -0.192152        -5.2287 
  88   1.0000      -0.186217        -5.0672 
  89   1.0000      -0.184592        -5.0230 
  90   1.0000      -0.180316        -4.9066 
  91   1.0000      -0.177464        -4.8290 
  92   1.0000      -0.156489        -4.2583 
  93   1.0000      -0.150830        -4.1043 
  94   1.0000      -0.146584        -3.9888 
  95   1.0000      -0.142820        -3.8863 
  96   1.0000      -0.129251        -3.5171 
  97   1.0000      -0.098971        -2.6931 
  98   1.0000      -0.096346        -2.6217 
  99   1.0000      -0.089239        -2.4283 
 100   1.0000      -0.084611        -2.3024 
 101   1.0000      -0.080572        -2.1925 
 102   1.0000      -0.079735        -2.1697 
 103   1.0000      -0.069782        -1.8989 
 104   1.0000      -0.050402        -1.3715 
 105   1.0000      -0.038958        -1.0601 
 106   1.0000      -0.037919        -1.0318 
 107   1.0000      -0.035984        -0.9792 
 108   1.0000      -0.032175        -0.8755 
 109   1.0000      -0.013492        -0.3671 
 110   1.0000      -0.004586        -0.1248 
 111   1.0000      -0.003541        -0.0964 
 112   1.0000       0.005843         0.1590 
 113   1.0000       0.010321         0.2809 
 114   1.0000       0.015930         0.4335 
 115   1.0000       0.033297         0.9060 
 116   1.0000       0.059443         1.6175 
 117   0.0000       0.186385         5.0718 
 118   0.0000       0.193901         5.2763 
 119   0.0000       0.194872         5.3027 
 120   0.0000       0.196427         5.3450 
 121   0.0000       0.211140         5.7454 
 122   0.0000       0.212207         5.7744 
 123   0.0000       0.217781         5.9261 
 124   0.0000       0.224088         6.0978 
 125   0.0000       0.226589         6.1658 
 126   0.0000       0.234035         6.3684 
 127   0.0000       0.236624         6.4389 
 128   0.0000       0.242619         6.6020 
 129   0.0000       0.245051         6.6682 
 130   0.0000       0.245530         6.6812 
 131   0.0000       0.247876         6.7451 
 132   0.0000       0.252067         6.8591 
 133   0.0000       0.255866         6.9625 
 134   0.0000       0.256689         6.9849 
 135   0.0000       0.260771         7.0959 
 136   0.0000       0.271597         7.3905 
 137   0.0000       0.275428         7.4948 
 138   0.0000       0.277884         7.5616 
 139   0.0000       0.283655         7.7187 
 140   0.0000       0.283827         7.7233 
 141   0.0000       0.284836         7.7508 
 142   0.0000       0.285896         7.7796 
 143   0.0000       0.293033         7.9738 
 144   0.0000       0.305036         8.3005 
 145   0.0000       0.307450         8.3661 
 146   0.0000       0.309821         8.4307 
 147   0.0000       0.320038         8.7087 
 148   0.0000       0.324405         8.8275 
 149   0.0000       0.328303         8.9336 
 150   0.0000       0.347170         9.4470 
 151   0.0000       0.359769         9.7898 
 152   0.0000       0.367055         9.9881 
 153   0.0000       0.374939        10.2026 
 154   0.0000       0.390507        10.6262 
 155   0.0000       0.395103        10.7513 
 156   0.0000       0.395504        10.7622 
 157   0.0000       0.397936        10.8284 
 158   0.0000       0.404149        10.9975 
 159   0.0000       0.411578        11.1996 
 160   0.0000       0.422840        11.5061 
 161   0.0000       0.424552        11.5526 
 162   0.0000       0.425987        11.5917 
 163   0.0000       0.428026        11.6472 
 164   0.0000       0.445462        12.1216 
 165   0.0000       0.450868        12.2687 
 166   0.0000       0.455940        12.4068 
 167   0.0000       0.456455        12.4208 
 168   0.0000       0.459188        12.4951 
 169   0.0000       0.463595        12.6151 
 170   0.0000       0.471107        12.8195 
 171   0.0000       0.477376        12.9901 
 172   0.0000       0.479759        13.0549 
 173   0.0000       0.483934        13.1685 
 174   0.0000       0.493609        13.4318 
 175   0.0000       0.493783        13.4365 
 176   0.0000       0.500247        13.6124 
 177   0.0000       0.501503        13.6466 
 178   0.0000       0.503072        13.6893 
 179   0.0000       0.508951        13.8493 
 180   0.0000       0.511489        13.9183 
 181   0.0000       0.515580        14.0296 
 182   0.0000       0.520605        14.1664 
 183   0.0000       0.522237        14.2108 
 184   0.0000       0.536875        14.6091 
 185   0.0000       0.545635        14.8475 
 186   0.0000       0.547011        14.8849 
 187   0.0000       0.550804        14.9881 
 188   0.0000       0.555606        15.1188 
 189   0.0000       0.556940        15.1551 
 190   0.0000       0.560286        15.2462 
 191   0.0000       0.569489        15.4966 
 192   0.0000       0.573818        15.6144 
 193   0.0000       0.574702        15.6384 
 194   0.0000       0.576483        15.6869 
 195   0.0000       0.579191        15.7606 
 196   0.0000       0.581819        15.8321 
 197   0.0000       0.585370        15.9287 
 198   0.0000       0.587067        15.9749 
 199   0.0000       0.589351        16.0371 
 200   0.0000       0.593713        16.1557 
 201   0.0000       0.596448        16.2302 
 202   0.0000       0.601974        16.3806 
 203   0.0000       0.605557        16.4780 
 204   0.0000       0.612034        16.6543 
 205   0.0000       0.615852        16.7582 
 206   0.0000       0.618849        16.8397 
 207   0.0000       0.623981        16.9794 
 208   0.0000       0.627702        17.0806 
 209   0.0000       0.632580        17.2134 
 210   0.0000       0.637396        17.3444 
 211   0.0000       0.640654        17.4331 
 212   0.0000       0.646367        17.5885 
 213   0.0000       0.648863        17.6565 
 214   0.0000       0.651545        17.7294 
 215   0.0000       0.655943        17.8491 
 216   0.0000       0.661776        18.0078 
 217   0.0000       0.663549        18.0561 
 218   0.0000       0.669945        18.2301 
 219   0.0000       0.675679        18.3862 
 220   0.0000       0.678360        18.4591 
 221   0.0000       0.687558        18.7094 
 222   0.0000       0.694095        18.8873 
 223   0.0000       0.703766        19.1504 
 224   0.0000       0.714338        19.4381 
 225   0.0000       0.722033        19.6475 
 226   0.0000       0.732207        19.9244 
 227   0.0000       0.739356        20.1189 
 228   0.0000       0.742628        20.2079 
 229   0.0000       0.753823        20.5126 
 230   0.0000       0.758397        20.6370 
 231   0.0000       0.773274        21.0419 
 232   0.0000       0.780014        21.2253 
 233   0.0000       0.798390        21.7253 
 234   0.0000       0.801162        21.8007 
 235   0.0000       0.837404        22.7869 
 236   0.0000       0.847729        23.0679 
 237   0.0000       0.867562        23.6076 
 238   0.0000       0.872942        23.7540 
 239   0.0000       0.886750        24.1297 
 240   0.0000       0.890963        24.2443 
 241   0.0000       0.903394        24.5826 
 242   0.0000       0.910220        24.7684 
 243   0.0000       0.913672        24.8623 
 244   0.0000       0.916982        24.9523 
 245   0.0000       0.922063        25.0906 
 246   0.0000       0.930571        25.3221 
 247   0.0000       0.949152        25.8278 
 248   0.0000       0.962310        26.1858 
 249   0.0000       0.973557        26.4918 
 250   0.0000       0.976569        26.5738 
 251   0.0000       0.978430        26.6244 
 252   0.0000       0.982700        26.7406 
 253   0.0000       0.987388        26.8682 
 254   0.0000       0.994194        27.0534 
 255   0.0000       1.001209        27.2443 
 256   0.0000       1.004306        27.3285 
 257   0.0000       1.016776        27.6679 
 258   0.0000       1.026413        27.9301 
 259   0.0000       1.033949        28.1352 
 260   0.0000       1.051398        28.6100 
 261   0.0000       1.056361        28.7451 
 262   0.0000       1.057770        28.7834 
 263   0.0000       1.059324        28.8257 
 264   0.0000       1.080199        29.3937 
 265   0.0000       1.086732        29.5715 
 266   0.0000       1.100070        29.9344 
 267   0.0000       1.111158        30.2362 
 268   0.0000       1.121675        30.5223 
 269   0.0000       1.123552        30.5734 
 270   0.0000       1.124315        30.5942 
 271   0.0000       1.132370        30.8133 
 272   0.0000       1.136026        30.9128 
 273   0.0000       1.137127        30.9428 
 274   0.0000       1.139518        31.0079 
 275   0.0000       1.151912        31.3451 
 276   0.0000       1.155672        31.4474 
 277   0.0000       1.158200        31.5162 
 278   0.0000       1.174724        31.9659 
 279   0.0000       1.186151        32.2768 
 280   0.0000       1.199866        32.6500 
 281   0.0000       1.236410        33.6444 
 282   0.0000       1.239227        33.7211 
 283   0.0000       1.272454        34.6252 
 284   0.0000       1.274200        34.6727 
 285   0.0000       1.283556        34.9273 
 286   0.0000       1.297918        35.3181 
 287   0.0000       1.311220        35.6801 
 288   0.0000       1.315293        35.7909 
 289   0.0000       1.348807        36.7029 
 290   0.0000       1.357296        36.9339 
 291   0.0000       1.360321        37.0162 
 292   0.0000       1.385868        37.7114 
 293   0.0000       1.413322        38.4584 
 294   0.0000       1.415392        38.5148 
 295   0.0000       1.426109        38.8064 
 296   0.0000       1.437220        39.1087 
 297   0.0000       1.441066        39.2134 
 298   0.0000       1.457337        39.6562 
 299   0.0000       1.466713        39.9113 
 300   0.0000       1.469741        39.9937 
 301   0.0000       1.482255        40.3342 
 302   0.0000       1.484536        40.3963 
 303   0.0000       1.490026        40.5457 
 304   0.0000       1.503620        40.9156 
 305   0.0000       1.519327        41.3430 
 306   0.0000       1.523352        41.4525 
 307   0.0000       1.534039        41.7433 
 308   0.0000       1.548202        42.1287 
 309   0.0000       1.550605        42.1941 
 310   0.0000       1.565751        42.6062 
 311   0.0000       1.578324        42.9484 
 312   0.0000       1.602922        43.6177 
 313   0.0000       1.604326        43.6559 
 314   0.0000       1.614828        43.9417 
 315   0.0000       1.626059        44.2473 
 316   0.0000       1.631755        44.4023 
 317   0.0000       1.639404        44.6104 
 318   0.0000       1.659339        45.1529 
 319   0.0000       1.665813        45.3291 
 320   0.0000       1.668983        45.4153 
 321   0.0000       1.673715        45.5441 
 322   0.0000       1.686031        45.8792 
 323   0.0000       1.696222        46.1566 
 324   0.0000       1.700051        46.2607 
 325   0.0000       1.708578        46.4928 
 326   0.0000       1.723757        46.9058 
 327   0.0000       1.737652        47.2839 
 328   0.0000       1.743304        47.4377 
 329   0.0000       1.752274        47.6818 
 330   0.0000       1.759333        47.8739 
 331   0.0000       1.770375        48.1744 
 332   0.0000       1.772557        48.2337 
 333   0.0000       1.791952        48.7615 
 334   0.0000       1.795530        48.8588 
 335   0.0000       1.802760        49.0556 
 336   0.0000       1.810463        49.2652 
 337   0.0000       1.813399        49.3451 
 338   0.0000       1.833077        49.8806 
 339   0.0000       1.838884        50.0386 
 340   0.0000       1.843025        50.1513 
 341   0.0000       1.843852        50.1738 
 342   0.0000       1.849004        50.3140 
 343   0.0000       1.856670        50.5226 
 344   0.0000       1.863236        50.7012 
 345   0.0000       1.870705        50.9045 
 346   0.0000       1.887777        51.3690 
 347   0.0000       1.916196        52.1423 
 348   0.0000       1.925299        52.3901 
 349   0.0000       1.929479        52.5038 
 350   0.0000       1.935709        52.6733 
 351   0.0000       1.944717        52.9184 
 352   0.0000       1.952009        53.1169 
 353   0.0000       1.954009        53.1713 
 354   0.0000       1.957308        53.2611 
 355   0.0000       1.962081        53.3909 
 356   0.0000       1.969165        53.5837 
 357   0.0000       1.989667        54.1416 
 358   0.0000       2.008718        54.6600 
 359   0.0000       2.012989        54.7762 
 360   0.0000       2.040137        55.5150 
 361   0.0000       2.050054        55.7848 
 362   0.0000       2.068847        56.2962 
 363   0.0000       2.071154        56.3590 
 364   0.0000       2.075030        56.4644 
 365   0.0000       2.099948        57.1425 
 366   0.0000       2.112296        57.4785 
 367   0.0000       2.126948        57.8772 
 368   0.0000       2.130032        57.9611 
 369   0.0000       2.145273        58.3758 
 370   0.0000       2.159883        58.7734 
 371   0.0000       2.166697        58.9588 
 372   0.0000       2.176253        59.2189 
 373   0.0000       2.186199        59.4895 
 374   0.0000       2.195788        59.7504 
 375   0.0000       2.197031        59.7843 
 376   0.0000       2.201459        59.9047 
 377   0.0000       2.210436        60.1490 
 378   0.0000       2.216436        60.3123 
 379   0.0000       2.221192        60.4417 
 380   0.0000       2.232732        60.7557 
 381   0.0000       2.236431        60.8564 
 382   0.0000       2.241357        60.9904 
 383   0.0000       2.264656        61.6244 
 384   0.0000       2.271040        61.7981 
 385   0.0000       2.278160        61.9919 
 386   0.0000       2.288084        62.2619 
 387   0.0000       2.290297        62.3222 
 388   0.0000       2.295792        62.4717 
 389   0.0000       2.312466        62.9254 
 390   0.0000       2.320447        63.1426 
 391   0.0000       2.327053        63.3223 
 392   0.0000       2.354344        64.0650 
 393   0.0000       2.357264        64.1444 
 394   0.0000       2.368949        64.4624 
 395   0.0000       2.402708        65.3810 
 396   0.0000       2.403133        65.3926 
 397   0.0000       2.407521        65.5120 
 398   0.0000       2.411534        65.6212 
 399   0.0000       2.420835        65.8743 
 400   0.0000       2.446748        66.5794 
 401   0.0000       2.471533        67.2538 
 402   0.0000       2.481829        67.5340 
 403   0.0000       2.489060        67.7308 
 404   0.0000       2.506926        68.2169 
 405   0.0000       2.515126        68.4401 
 406   0.0000       2.527111        68.7662 
 407   0.0000       2.533912        68.9512 
 408   0.0000       2.540393        69.1276 
 409   0.0000       2.552015        69.4439 
 410   0.0000       2.552886        69.4676 
 411   0.0000       2.573395        70.0256 
 412   0.0000       2.598569        70.7107 
 413   0.0000       2.606664        70.9309 
 414   0.0000       2.613112        71.1064 
 415   0.0000       2.619107        71.2695 
 416   0.0000       2.632717        71.6399 
 417   0.0000       2.638848        71.8067 
 418   0.0000       2.648765        72.0765 
 419   0.0000       2.664540        72.5058 
 420   0.0000       2.672356        72.7185 
 421   0.0000       2.679950        72.9251 
 422   0.0000       2.692002        73.2531 
 423   0.0000       2.700814        73.4929 
 424   0.0000       2.716702        73.9252 
 425   0.0000       2.763196        75.1904 
 426   0.0000       2.779722        75.6401 
 427   0.0000       2.785757        75.8043 
 428   0.0000       2.798769        76.1584 
 429   0.0000       2.806505        76.3689 
 430   0.0000       2.812947        76.5442 
 431   0.0000       2.823304        76.8260 
 432   0.0000       2.856926        77.7409 
 433   0.0000       2.863437        77.9181 
 434   0.0000       2.863857        77.9295 
 435   0.0000       2.878098        78.3170 
 436   0.0000       2.890406        78.6519 
 437   0.0000       2.900756        78.9336 
 438   0.0000       2.911060        79.2140 
 439   0.0000       2.911504        79.2260 
 440   0.0000       2.919787        79.4515 
 441   0.0000       2.924719        79.5857 
 442   0.0000       2.928699        79.6940 
 443   0.0000       2.949795        80.2680 
 444   0.0000       2.964920        80.6796 
 445   0.0000       3.000850        81.6573 
 446   0.0000       3.013574        82.0035 
 447   0.0000       3.026168        82.3462 
 448   0.0000       3.053380        83.0867 
 449   0.0000       3.055738        83.1508 
 450   0.0000       3.089295        84.0640 
 451   0.0000       3.166070        86.1531 
 452   0.0000       3.189031        86.7780 
 453   0.0000       3.284398        89.3730 
 454   0.0000       3.334123        90.7261 
 455   0.0000       3.399163        92.4959 
 456   0.0000       3.424785        93.1931 
 457   0.0000       3.440027        93.6079 
 458   0.0000       3.451586        93.9224 
 459   0.0000       3.453552        93.9759 
 460   0.0000       3.481863        94.7463 
 461   0.0000       3.495339        95.1130 
 462   0.0000       3.515538        95.6626 
 463   0.0000       3.524633        95.9101 
 464   0.0000       3.540583        96.3442 
 465   0.0000       3.561921        96.9248 
 466   0.0000       3.576029        97.3087 
 467   0.0000       3.586695        97.5989 
 468   0.0000       3.596039        97.8532 
 469   0.0000       3.801853       103.4537 
 470   0.0000       3.844138       104.6043 
 471   0.0000       3.861084       105.0654 
 472   0.0000       3.994392       108.6929 
 473   0.0000       4.215589       114.7120 
 474   0.0000       4.542283       123.6018 
 475   0.0000       4.559264       124.0639 
 476   0.0000       4.562684       124.1570 
 477   0.0000       4.590811       124.9223 
 478   0.0000       4.618987       125.6890 
 479   0.0000       4.619368       125.6994 
 480   0.0000       5.202070       141.5555 
 481   0.0000       7.008009       190.6976 
 482   0.0000       7.055000       191.9763 
 483   0.0000       7.058657       192.0758 
 484   0.0000      18.721822       509.4467 
 485   0.0000      18.766543       510.6636 
 486   0.0000      19.005452       517.1646 
 487   0.0000      19.017584       517.4948 
 488   0.0000      19.052224       518.4374 
[...]
Total number of batches                      ...      237
Average number of points per batch           ...       59
Average number of grid points per atom       ...      437

Memory available               ... 870.3 MB
Memory needed per perturbation ...  23.5 MB
Perturbations treated per batch... 3
Number of batches              ... 1
     CP-SCF ITERATION   0:   4.4787e-02 (   2.9 sec   0/  3 done)
     CP-SCF ITERATION   1:   1.5615e-03 (   3.0 sec   0/  3 done)
     CP-SCF ITERATION   2:   4.0725e-04 (   3.0 sec   3/  3 done)
                    *** THE CP-SCF HAS CONVERGED ***

Forming final perturbed densities           ... done
Transforming perturbed density to AO basis  ... done

 Raw HFC matrix (all values in MHz): 
 -----------------------------------
                 0.7238               0.4107              -0.2153
                 0.4103              -0.3539              -0.0719
                -0.2160              -0.0718              -0.4895

 A(FC)          -0.0390              -0.0390              -0.0390
 A(SD)          -0.4563              -0.4904               0.9467
 A(ORB+DIA)      0.0029               0.0027              -0.0081    A(PC) =  -0.0008
 A(ORB)          0.0029               0.0028              -0.0083    A(PC) =  -0.0009
 A(DIA)         -0.0000              -0.0001               0.0002    A(PC) =   0.0000
             ----------           ----------           ----------
 A(Tot)         -0.4925              -0.5267               0.8996    A(iso)=   -0.0399
 Orientation: 
  X           0.3165244            0.1591695           -0.9351349
  Y          -0.9483783            0.0325507           -0.3154665
  Z          -0.0197734            0.9867145            0.1612560

Notes:  (1) The A matrix conforms to the "SAI" spin Hamiltonian convention.
        (2) Tensor is right-handed.

 Raw EFG matrix (all values in a.u.**-3):
 -----------------------------------
            -0.0365      -0.1766      -0.0604
            -0.1766       0.1430       0.1027
            -0.0604       0.1027      -0.1066

 V(El)       0.6006       0.4558      -1.0563
 V(Nuc)     -0.7419      -0.6019       1.3437
         ----------   ----------   ----------
 V(Tot)     -0.1413      -0.1461       0.2874 
 Orientation: 
  X      -0.5737260    0.6492632    0.4992953
  Y      -0.0612533    0.5738855   -0.8166416
  Z      -0.8167536   -0.4991120   -0.2894836

Note: Tensor is right-handed


 Quadrupole tensor eigenvalues (in MHz;Q= 0.0029 I=  1.0)
  e**2qQ            =     0.193003 MHz 
  e**2qQ/(4I*(2I-1))=     0.048251 MHz 
  eta               =     0.016564
  NOTE: the diagonal representation of the SH term I*Q*I = e**2qQ/(4I(2I-1))*[-(1-eta),-(1+eta),2]

 RHO(0)=      0.441092166 a.u.**-3

 -----------------------------------------------------------
 Nucleus  31H : A:ISTP=    1 I=  0.5 P=533.5514 MHz/au**3
                Q:ISTP=    2 I=  1.0 Q=  0.0029 barn     
 -----------------------------------------------------------
 Solving for nuclear perturbation:
Forming RHS of the CP-SCF equations         ... 
Calc. nucleus orbit integrals (SHARK)       ... done

------------------------------------------------------------------------------
                           ORCA CP-SCF CALCULATION
------------------------------------------------------------------------------

Input orbitals are from        ... input_58.gbw
Input Perturbation             ... input_58.pin.tmp
Wavefunction output            ... input_58.pout.tmp
Perturbation mode              ... Imaginary perturbation
Solver                         ... POPLE
Max. number of iterations      ... 64
Convergence tolerance          ... 1.000e-03
Integral handling              ... Direct
DFT GridXC                     ... 1
COSX GridX                     ... 1
COSX IntAccX                   ... 3.067
COSX Algorithm                 ... Auto
Number of perturbations        ... 3
Number of operators            ... 2
Orbital ranges used for CP-SCF:
 Operator 0:  Orbitals   0...116  to 117...516
 Operator 1:  Orbitals   0...115  to 116...516
Variables per perturbation     ... 93316
DFT calculation                         ... on
XC functional terms                     ... off
Hybrid DFT                              ... on
   Exchange mixing (SCF)                ...  0.200
   Exchange mixing (CP-SCF)             ...  0.200
   GGA exch. scaling(SCF)               ...  0.720
   GGA exch. scaling (CP-SCF)           ...  0.720
   GGA corr. scaling (SCF)              ...  0.810
   GGA corr. scaling (CP-SCF)           ...  0.810

CP-SCF GRID
-----------

General Integration Accuracy     IntAcc      ... 3.467
Radial Grid Type                 RadialGrid  ... OptM3 with GC (2021)
Angular Grid (max. ang.)         AngularGrid ... 1 (Lebedev-50)
Angular grid pruning method      GridPruning ... 4 (adaptive)
Weight generation scheme         WeightScheme... Becke
Basis function cutoff            BFCut       ... 1.0000e-10
Integration weight cutoff        WCut        ... 1.0000e-14
Angular grids for H and He will be reduced by one unit
Partially contracted basis set               ... off
Rotationally invariant grid construction     ... off

Total number of grid points                  ...    31473
Total number of batches                      ...      508
Average number of points per batch           ...       61
Average number of grid points per atom       ...      984

CP-SCF GRIDX
------------

General Integration Accuracy     IntAcc      ... 3.067
Radial Grid Type                 RadialGrid  ... OptM3 with GC (2021)
Angular Grid (max. ang.)         AngularGrid ... 1 (Lebedev-50)
Angular grid pruning method      GridPruning ... 4 (adaptive)
Weight generation scheme         WeightScheme... Becke
Basis function cutoff            BFCut       ... 1.0000e-10
Integration weight cutoff        WCut        ... 1.0000e-14
Angular grids for H and He will be reduced by one unit
Partially contracted basis set               ... on
Rotationally invariant grid construction     ... off

Total number of grid points                  ...    13990
Total number of batches                      ...      237
Average number of points per batch           ...       59
Average number of grid points per atom       ...      437

Memory available               ... 868.7 MB
Memory needed per perturbation ...  23.5 MB
Perturbations treated per batch... 3
Number of batches              ... 1
     CP-SCF ITERATION   0:   4.2433e-02 (   2.9 sec   0/  3 done)
     CP-SCF ITERATION   1:   1.3288e-03 (   2.9 sec   1/  3 done)
     CP-SCF ITERATION   2:   2.3729e-04 (   2.4 sec   3/  3 done)
                    *** THE CP-SCF HAS CONVERGED ***

Forming final perturbed densities           ... done
Transforming perturbed density to AO basis  ... done

 Raw HFC matrix (all values in MHz): 
 -----------------------------------
                 0.4117               0.1083              -0.2180
                 0.1075              -0.2493              -0.0411
                -0.2182              -0.0411              -0.1881

 A(FC)          -0.0082              -0.0082              -0.0082
 A(SD)          -0.2492              -0.2635               0.5127
 A(ORB+DIA)      0.0013               0.0017              -0.0041    A(PC) =  -0.0003
 A(ORB)          0.0014               0.0018              -0.0042    A(PC) =  -0.0003
 A(DIA)         -0.0001              -0.0000               0.0001    A(PC) =  -0.0000
             ----------           ----------           ----------
 A(Tot)         -0.2561              -0.2699               0.5004    A(iso)=   -0.0085
 Orientation: 
  X           0.3418852           -0.0169997            0.9395879
  Y          -0.4618020           -0.8738230            0.1522247
  Z           0.8184458           -0.4859469           -0.3065976

Notes:  (1) The A matrix conforms to the "SAI" spin Hamiltonian convention.
        (2) Tensor is right-handed.

 Raw EFG matrix (all values in a.u.**-3):
 -----------------------------------
             0.0200       0.0735      -0.1976
             0.0735      -0.1178      -0.0845
            -0.1976      -0.0845       0.0978

 V(El)       0.5400       0.8260      -1.3660
 V(Nuc)     -0.6813      -0.9757       1.6570
         ----------   ----------   ----------
 V(Tot)     -0.1413      -0.1497       0.2910 
 Orientation: 
  X       0.6491508    0.4488858    0.6140885
  Y       0.3668026   -0.8919742    0.2642686
  Z       0.6663776    0.0536991   -0.7436783

Note: Tensor is right-handed


 Quadrupole tensor eigenvalues (in MHz;Q= 0.0029 I=  1.0)
  e**2qQ            =     0.195386 MHz 
  e**2qQ/(4I*(2I-1))=     0.048847 MHz 
  eta               =     0.029007
  NOTE: the diagonal representation of the SH term I*Q*I = e**2qQ/(4I(2I-1))*[-(1-eta),-(1+eta),2]

 RHO(0)=      0.444891078 a.u.**-3

 -----------------------------------------------------------
 Nucleus   0V : A:ISTP=   51 I=  3.5 P=140.5173 MHz/au**3
                Q:ISTP=   51 I=  3.5 Q= -0.0430 barn     
 -----------------------------------------------------------
 Solving for nuclear perturbation:
Forming RHS of the CP-SCF equations         ... 
Calc. nucleus orbit integrals (SHARK)       ... done

------------------------------------------------------------------------------
                           ORCA CP-SCF CALCULATION
------------------------------------------------------------------------------

Input orbitals are from        ... input_58.gbw
Input Perturbation             ... input_58.pin.tmp
Wavefunction output            ... input_58.pout.tmp
Perturbation mode              ... Imaginary perturbation
Solver                         ... POPLE
Max. number of iterations      ... 64
Convergence tolerance          ... 1.000e-03
Integral handling              ... Direct
DFT GridXC                     ... 1
COSX GridX                     ... 1
COSX IntAccX                   ... 3.067
COSX Algorithm                 ... Auto
Number of perturbations        ... 3
Number of operators            ... 2
Orbital ranges used for CP-SCF:
 Operator 0:  Orbitals   0...116  to 117...516
 Operator 1:  Orbitals   0...115  to 116...516
Variables per perturbation     ... 93316
DFT calculation                         ... on
XC functional terms                     ... off
Hybrid DFT                              ... on
   Exchange mixing (SCF)                ...  0.200
   Exchange mixing (CP-SCF)             ...  0.200
   GGA exch. scaling(SCF)               ...  0.720
   GGA exch. scaling (CP-SCF)           ...  0.720
   GGA corr. scaling (SCF)              ...  0.810
   GGA corr. scaling (CP-SCF)           ...  0.810

CP-SCF GRID
-----------

General Integration Accuracy     IntAcc      ... 3.467
Radial Grid Type                 RadialGrid  ... OptM3 with GC (2021)
Angular Grid (max. ang.)         AngularGrid ... 1 (Lebedev-50)
Angular grid pruning method      GridPruning ... 4 (adaptive)
Weight generation scheme         WeightScheme... Becke
Basis function cutoff            BFCut       ... 1.0000e-10
Integration weight cutoff        WCut        ... 1.0000e-14
Angular grids for H and He will be reduced by one unit
Partially contracted basis set               ... off
Rotationally invariant grid construction     ... off

Total number of grid points                  ...    31473
Total number of batches                      ...      508
Average number of points per batch           ...       61
Average number of grid points per atom       ...      984

CP-SCF GRIDX
------------

General Integration Accuracy     IntAcc      ... 3.067
Radial Grid Type                 RadialGrid  ... OptM3 with GC (2021)
Angular Grid (max. ang.)         AngularGrid ... 1 (Lebedev-50)
Angular grid pruning method      GridPruning ... 4 (adaptive)
Weight generation scheme         WeightScheme... Becke
Basis function cutoff            BFCut       ... 1.0000e-10
Integration weight cutoff        WCut        ... 1.0000e-14
Angular grids for H and He will be reduced by one unit
Partially contracted basis set               ... on
Rotationally invariant grid construction     ... off

Total number of grid points                  ...    13990
Total number of batches                      ...      237
Average number of points per batch           ...       59
Average number of grid points per atom       ...      437

Memory available               ... 867.1 MB
Memory needed per perturbation ...  23.5 MB
Perturbations treated per batch... 3
Number of batches              ... 1
     CP-SCF ITERATION   0:   1.1577e+01 (   3.1 sec   0/  3 done)
     CP-SCF ITERATION   1:   1.8812e+00 (   2.9 sec   0/  3 done)
     CP-SCF ITERATION   2:   3.2096e-01 (   2.9 sec   0/  3 done)
     CP-SCF ITERATION   3:   4.1152e-02 (   2.9 sec   0/  3 done)
     CP-SCF ITERATION   4:   9.1732e-03 (   2.9 sec   0/  3 done)
     CP-SCF ITERATION   5:   2.1145e-03 (   2.9 sec   0/  3 done)
     CP-SCF ITERATION   6:   3.2143e-04 (   2.9 sec   3/  3 done)
                    *** THE CP-SCF HAS CONVERGED ***

Forming final perturbed densities           ... done
Transforming perturbed density to AO basis  ... done

 Raw HFC matrix (all values in MHz): 
 -----------------------------------
              -139.0754            -106.9362             -37.2366
              -106.8857            -292.2016             -77.4502
               -37.2281             -77.4545             -98.2363

 A(FC)        -165.4013            -165.4013            -165.4013
 A(SD)         100.8240              88.5625            -189.3865
 A(ORB+DIA)     -6.5242              -7.6637             -19.1215    A(PC) = -11.1031
 A(ORB)         -6.5238              -7.6642             -19.1214    A(PC) = -11.1031
 A(DIA)         -0.0004               0.0005              -0.0001    A(PC) =  -0.0000
             ----------           ----------           ----------
 A(Tot)        -71.1015             -84.5025            -373.9093    A(iso)= -176.5044
 Orientation: 
  X          -0.0129915            0.9006727           -0.4343039
  Y           0.3361653           -0.4051247           -0.8502158
  Z          -0.9417134           -0.1570435           -0.2975118

Notes:  (1) The A matrix conforms to the "SAI" spin Hamiltonian convention.
        (2) Tensor is right-handed.

 Raw EFG matrix (all values in a.u.**-3):
 -----------------------------------
            -0.1055       0.1861       0.0719
             0.1861       0.1710       0.0930
             0.0719       0.0930      -0.0655

 V(El)       0.1393      -0.4670       0.3277
 V(Nuc)     -0.2366       0.2633      -0.0267
         ----------   ----------   ----------
 V(Tot)     -0.0973      -0.2037       0.3010 
 Orientation: 
  X       0.0500598   -0.8963910   -0.4404284
  Y      -0.3578878    0.3955968   -0.8458248
  Z       0.9324218    0.1999658   -0.3010039

Note: Tensor is right-handed


 Quadrupole tensor eigenvalues (in MHz;Q=-0.0430 I=  3.5)
  e**2qQ            =    -3.041329 MHz 
  e**2qQ/(4I*(2I-1))=    -0.036206 MHz 
  eta               =     0.353519
  NOTE: the diagonal representation of the SH term I*Q*I = e**2qQ/(4I(2I-1))*[-(1-eta),-(1+eta),2]

 RHO(0)=   8115.215898956 a.u.**-3


--------------------------------------------------------------------------------
----------------------------------------------------------------------------
                           ORCA EULER ANGLE PROGRAM
----------------------------------------------------------------------------

Only g-tensor available        -->  using g-tensor as reference tensor

Reference tensor               ...  g

g-tensor ordering              ...  |g_min> --> |gx>
                                    |g_mid> --> |gy>
                                    |g_max> --> |gz>

A- and EFG-tensor ordering     ...  the axes |Ax>, |Qx>, |Ay>, etc. are assigned
                                    such that the Euler rotation is minimal. You
                                    can find the respective eigenvalues as Ax,
                                    EFGx, Ay, etc. in the tables below.
                                    The relation of |Ax>, |Ay>,  etc. to Amin, Amid, etc.
                                    (as printed in the ORCA EPR/NMR CALCULATION Output)
                                    is obtained in the detailed printout.

Euler rotation around          ...  z - y - z
   First rotation              -->  by alpha around z
   Second rotation             -->  by beta around y'
   Third rotation              -->  by gamma around z''
   Positive / Negative angle   -->  clockwise / counterclockwise rotation

Plot EFG-tensors                    (-)
Plot HFC-tensors                    (-)
Detailed Printout                   (-)

-------------------------------------------------------------------------
          Euler rotation of hyperfine tensor to g-tensor
-------------------------------------------------------------------------

-------------------------------------------------------------------
 Atom  |   Alpha    Beta    Gamma   |   Ax       Ay       Az 
       |          [degrees]         |           [MHz]         
-------------------------------------------------------------------
 19H     -128.2     16.1    170.2      -0.45     0.82    -0.48
 20H      -71.8     21.7     97.8      -0.28     0.53    -0.26
 21H       -0.7     11.7     33.1      -0.13     0.46    -0.13
 22H      143.4      3.4   -124.9      -0.22     0.45    -0.22
 23H      128.4     22.6   -102.3      -0.27     0.46    -0.26
 24H       28.5     35.6     14.8      -0.54     0.98    -0.59
 26H       65.3     20.8    -92.3      -0.27     0.50    -0.25
 27H      142.3     23.8    174.7      -0.50     0.90    -0.53
 28H     -153.6      0.5    134.2      -0.22     0.45    -0.22
 29H     -173.0      1.8    139.6      -0.12     0.47    -0.12
 30H      -39.6     23.2     -3.6      -0.49     0.90    -0.53
 31H     -116.2     21.7     89.1      -0.27     0.50    -0.26
  0V      -59.4      0.3     58.8    -373.91   -84.50   -71.10
-------------------------------------------------------------------


-------------------------------------------------------------------------------
    Euler rotation of Electric Field Gradient (EFG) tensor to g-tensor
-------------------------------------------------------------------------------

-------------------------------------------------------------------
 Atom  |   Alpha    Beta    Gamma  |   EFGx     EFGy     EFGz
       |          [degrees]        |         [a.u.**-3]       
-------------------------------------------------------------------
 19H     -169.0     28.8    126.2     -0.12     0.24    -0.12
 20H       61.2     31.5    -71.1     -0.13    -0.14     0.27
 21H      -89.5     17.5     70.1      0.28    -0.15    -0.13
 22H       77.0     10.2   -112.4     -0.13     0.25    -0.12
 23H       88.7     43.9    -58.0     -0.14     0.27    -0.13
 24H     -102.8      7.4     77.9     -0.12     0.24    -0.12
 26H      -34.1     39.3     64.4     -0.14    -0.15     0.29
 27H     -177.7     42.2   -148.4     -0.15     0.29    -0.14
 28H      -71.9      0.2    106.8     -0.15     0.29    -0.14
 29H      -91.2      1.0    109.8      0.28    -0.14    -0.14
 30H        0.6     41.1     33.3     -0.15     0.29    -0.14
 31H      145.2     38.4   -116.2     -0.14    -0.15     0.29
  0V      -92.8      2.7     92.6      0.30    -0.20    -0.10
-------------------------------------------------------------------


Maximum memory used throughout the entire EPRNMR-calculation: 221.5 MB

Timings for individual modules:

Sum of individual times         ...     1657.065 sec (=  27.618 min)
GTO integral calculation        ...        1.361 sec (=   0.023 min)   0.1 %
Spin-Orbit-Coupling Matrices    ...        6.591 sec (=   0.110 min)   0.4 %
SCF iterations                  ...      125.733 sec (=   2.096 min)   7.6 %
EPR/NMR calculation             ...     1523.380 sec (=  25.390 min)  91.9 %
                             ****ORCA TERMINATED NORMALLY****
TOTAL RUN TIME: 0 days 0 hours 27 minutes 38 seconds 263 msec
