
                                 *****************
                                 * O   R   C   A *
                                 *****************

                                            #,                                       
                                            ###                                      
                                            ####                                     
                                            #####                                    
                                            ######                                   
                                           ########,                                 
                                     ,,################,,,,,                         
                               ,,#################################,,                 
                          ,,##########################################,,             
                       ,#########################################, ''#####,          
                    ,#############################################,,   '####,        
                  ,##################################################,,,,####,       
                ,###########''''           ''''###############################       
              ,#####''   ,,,,##########,,,,          '''####'''          '####       
            ,##' ,,,,###########################,,,                        '##       
           ' ,,###''''                  '''############,,,                           
         ,,##''                                '''############,,,,        ,,,,,,###''
      ,#''                                            '''#######################'''  
     '                                                          ''''####''''         
             ,#######,   #######,   ,#######,      ##                                
            ,#'     '#,  ##    ##  ,#'     '#,    #''#        ######   ,####,        
            ##       ##  ##   ,#'  ##            #'  '#       #        #'  '#        
            ##       ##  #######   ##           ,######,      #####,   #    #        
            '#,     ,#'  ##    ##  '#,     ,#' ,#      #,         ##   #,  ,#        
             '#######'   ##     ##  '#######'  #'      '#     #####' # '####'        



                  #######################################################
                  #                        -***-                        #
                  #          Department of theory and spectroscopy      #
                  #    Directorship and core code : Frank Neese         #
                  #        Max Planck Institute fuer Kohlenforschung    #
                  #                Kaiser Wilhelm Platz 1               #
                  #                 D-45470 Muelheim/Ruhr               #
                  #                      Germany                        #
                  #                                                     #
                  #                  All rights reserved                #
                  #                        -***-                        #
                  #######################################################


                         Program Version 5.0.4 -  RELEASE  -


 With contributions from (in alphabetic order):
   Daniel Aravena         : Magnetic Suceptibility
   Michael Atanasov       : Ab Initio Ligand Field Theory (pilot matlab implementation)
   Alexander A. Auer      : GIAO ZORA, VPT2 properties, NMR spectrum
   Ute Becker             : Parallelization
   Giovanni Bistoni       : ED, misc. LED, open-shell LED, HFLD
   Martin Brehm           : Molecular dynamics
   Dmytro Bykov           : SCF Hessian
   Vijay G. Chilkuri      : MRCI spin determinant printing, contributions to CSF-ICE
   Dipayan Datta          : RHF DLPNO-CCSD density
   Achintya Kumar Dutta   : EOM-CC, STEOM-CC
   Dmitry Ganyushin       : Spin-Orbit,Spin-Spin,Magnetic field MRCI
   Miquel Garcia          : C-PCM and meta-GGA Hessian, CC/C-PCM, Gaussian charge scheme
   Yang Guo               : DLPNO-NEVPT2, F12-NEVPT2, CIM, IAO-localization
   Andreas Hansen         : Spin unrestricted coupled pair/coupled cluster methods
   Benjamin Helmich-Paris : MC-RPA, TRAH-SCF, COSX integrals
   Lee Huntington         : MR-EOM, pCC
   Robert Izsak           : Overlap fitted RIJCOSX, COSX-SCS-MP3, EOM
   Marcus Kettner         : VPT2
   Christian Kollmar      : KDIIS, OOCD, Brueckner-CCSD(T), CCSD density, CASPT2, CASPT2-K
   Simone Kossmann        : Meta GGA functionals, TD-DFT gradient, OOMP2, MP2 Hessian
   Martin Krupicka        : Initial AUTO-CI
   Lucas Lang             : DCDCAS
   Marvin Lechner         : AUTO-CI (C++ implementation), FIC-MRCC
   Dagmar Lenk            : GEPOL surface, SMD
   Dimitrios Liakos       : Extrapolation schemes; Compound Job, initial MDCI parallelization
   Dimitrios Manganas     : Further ROCIS development; embedding schemes
   Dimitrios Pantazis     : SARC Basis sets
   Anastasios Papadopoulos: AUTO-CI, single reference methods and gradients
   Taras Petrenko         : DFT Hessian,TD-DFT gradient, ASA, ECA, R-Raman, ABS, FL, XAS/XES, NRVS
   Peter Pinski           : DLPNO-MP2, DLPNO-MP2 Gradient
   Christoph Reimann      : Effective Core Potentials
   Marius Retegan         : Local ZFS, SOC
   Christoph Riplinger    : Optimizer, TS searches, QM/MM, DLPNO-CCSD(T), (RO)-DLPNO pert. Triples
   Tobias Risthaus        : Range-separated hybrids, TD-DFT gradient, RPA, STAB
   Michael Roemelt        : Original ROCIS implementation
   Masaaki Saitow         : Open-shell DLPNO-CCSD energy and density
   Barbara Sandhoefer     : DKH picture change effects
   Avijit Sen             : IP-ROCIS
   Kantharuban Sivalingam : CASSCF convergence, NEVPT2, FIC-MRCI
   Bernardo de Souza      : ESD, SOC TD-DFT
   Georgi Stoychev        : AutoAux, RI-MP2 NMR, DLPNO-MP2 response
   Willem Van den Heuvel  : Paramagnetic NMR
   Boris Wezisla          : Elementary symmetry handling
   Frank Wennmohs         : Technical directorship


 We gratefully acknowledge several colleagues who have allowed us to
 interface, adapt or use parts of their codes:
   Stefan Grimme, W. Hujo, H. Kruse, P. Pracht,  : VdW corrections, initial TS optimization,
                  C. Bannwarth, S. Ehlert          DFT functionals, gCP, sTDA/sTD-DF
   Ed Valeev, F. Pavosevic, A. Kumar             : LibInt (2-el integral package), F12 methods
   Garnet Chan, S. Sharma, J. Yang, R. Olivares  : DMRG
   Ulf Ekstrom                                   : XCFun DFT Library
   Mihaly Kallay                                 : mrcc  (arbitrary order and MRCC methods)
   Jiri Pittner, Ondrej Demel                    : Mk-CCSD
   Frank Weinhold                                : gennbo (NPA and NBO analysis)
   Christopher J. Cramer and Donald G. Truhlar   : smd solvation model
   Lars Goerigk                                  : TD-DFT with DH, B97 family of functionals
   V. Asgeirsson, H. Jonsson                     : NEB implementation
   FAccTs GmbH                                   : IRC, NEB, NEB-TS, DLPNO-Multilevel, CI-OPT
                                                   MM, QMMM, 2- and 3-layer-ONIOM, Crystal-QMMM,
                                                   LR-CPCM, SF, NACMEs, symmetry and pop. for TD-DFT,
                                                   nearIR, NL-DFT gradient (VV10), updates on ESD,
                                                   ML-optimized integration grids
   S Lehtola, MJT Oliveira, MAL Marques          : LibXC Library
   Liviu Ungur et al                             : ANISO software


 Your calculation uses the libint2 library for the computation of 2-el integrals
 For citations please refer to: http://libint.valeyev.net

 Your ORCA version has been built with support for libXC version: 5.1.0
 For citations please refer to: https://tddft.org/programs/libxc/

 This ORCA versions uses:
   CBLAS   interface :  Fast vector & matrix operations
   LAPACKE interface :  Fast linear algebra routines
   SCALAPACK package :  Parallel linear algebra routines
   Shared memory     :  Shared parallel matrices
   BLAS/LAPACK       :  OpenBLAS 0.3.15  USE64BITINT DYNAMIC_ARCH NO_AFFINITY Prescott SINGLE_THREADED
        Core in use  :  Prescott
   Copyright (c) 2011-2014, The OpenBLAS Project


================================================================================

----- Orbital basis set information -----
Your calculation utilizes the basis: TZVP 

The basis set includes element-specific modifications.

Your calculation utilizes the basis: CP(PPP) 

----- AuxJ basis set information -----
Your calculation utilizes the auxiliary basis: def2/J
   F. Weigend, Phys. Chem. Chem. Phys. 8, 1057 (2006).

================================================================================
                                        WARNINGS
                       Please study these warnings very carefully!
================================================================================


WARNING: your system is open-shell and RHF/RKS was chosen
  ===> : WILL SWITCH to UHF/UKS


INFO   : the flag for use of the SHARK integral package has been found!

================================================================================
                                       INPUT FILE
================================================================================
NAME = input_57.inp
|  1> ! nofrozencore ReducedPop printbasis
|  2> ! B3LYP TZVP
|  3> 
|  4> %basis
|  5> newgto V "CP(PPP)" end
|  6> end
|  7> 
|  8> %pal
|  9> nprocs 8
| 10> end
| 11> 
| 12> % sym SymThresh 1e-2 end
| 13> * xyz -2 2 
| 14> V -0.7142623778932018 -0.5414307976878602 0.6639370636456716
| 15> S 0.09591959258259863 -2.1346612779236955 -1.0127207282479036
| 16> S 1.5188050322726452 -0.7183639915334685 1.653808983491259
| 17> S -1.9813869550930003 0.36924863702980704 -1.223863124631558
| 18> S -0.5773089474020193 1.7715505007911072 1.4631600458454126
| 19> O -1.7366384664044863 -1.3210818063728358 1.6105709776392843
| 20> C 1.6476721779468444 0.7136671556638896 2.6830459648057685
| 21> C 0.7743992732852942 1.7521782578204248 2.602363105036188
| 22> C -1.036421828415026 -1.9479108168096582 -2.359044733907305
| 23> C -1.905611884112153 -0.9061692339693601 -2.444347120155383
| 24> S 3.044040237360949 0.7009185921088328 3.8253587881187916
| 25> S 0.9231815390842668 3.2308593990944465 3.6254427966820937
| 26> S -3.0282249955677436 -0.6912487680640118 -3.8377009777124025
| 27> S -0.9319363713316933 -3.2405232949240994 -3.6169063649502147
| 28> C 2.4768753612976733 4.010957443085424 3.003206243699751
| 29> C -1.9383613661753907 -0.2738952694726907 -5.199261166867958
| 30> C 4.135797853583468 2.0351310010266865 3.1616670635600608
| 31> C -0.30117799795464295 -2.276482266031675 -5.1310423429171115
| 32> C 3.784511956606698 3.461313185124559 3.5767657403383057
| 33> H 4.144754036283277 1.9339581629826978 2.074299987704547
| 34> H 5.135831858101607 1.784682903695129 3.5294787405639543
| 35> H 4.603612945007662 4.1195486554724825 3.244375083077287
| 36> H 3.751670778754435 3.520680455441342 4.670030530036763
| 37> H 2.381497059032009 5.069793096186243 3.263620012207643
| 38> H 2.4613038531535016 3.9320493545528072 1.9140502052795232
| 39> C -1.182321710871884 -1.6506180060919706 -5.91280994295343
| 40> H 0.16647106852750887 -3.077145528021813 -5.715329122270096
| 41> H 0.4823901392787735 -1.547929793507244 -4.875307013169554
| 42> H -1.9513084508701284 -2.360952690968355 -6.237197941708689
| 43> H -0.5380447559988308 -1.454868521112359 -6.8083020156077465
| 44> H -1.250730129975819 0.4426017720904104 -4.725009759594376
| 45> H -2.5236148844619946 0.26314884741056366 -5.95263136126792
| 46> * 
| 47> 
| 48> % eprnmr
| 49> gtensor true
| 50> Nuclei = all H {aiso,adip,aorb,fgrad,rho}
| 51> Nuclei = all V {aiso,adip,aorb,fgrad,rho}
| 52> end
| 53> 
| 54>                          ****END OF INPUT****
================================================================================

------------------------------------------------------------------------------
                            SYMMETRY HANDLING SETUP
------------------------------------------------------------------------------

------------------
SYMMETRY DETECTION
------------------
The point group will now be determined using a tolerance of 1.0000e-02.
Splitting atom subsets according to nuclear charge, mass and basis set.
Splitting atom subsets according to distance from the molecule's center.
Identifying relative distance patterns of the atoms.
Splitting atom subsets according to atoms' relative distance patterns.
Bring atoms of each subset into input order.
The molecule is neither linear nor planar.

WARNING (ORCA_SYM): A non-planar off-center atom subset has been encountered
in function TSymmetryFinder::FilterSubsetShapes() which cannot occur under
regular conditions. The full point group may not be assigned correctly. If the
symmetry appears to be too low, please try increasing the cleaning tolerance
using option SymThresh in the %symmetry input block. If the problem persists,
you may post a message in the ORCA forum.
There is at least one atom subset not centered around the molecule's center.
The molecule does not have a center of inversion.
Analyzing the first atom subset for its symmetry.
The atom subset represents a 4-gon with alternating side lengths
that is not centered around the molecule's center.
Testing point group C2v.
Test failed.
Testing point group C2.
Test failed.
Testing point group Cs.
Test failed.
Testing point group Cs.
Test failed.
No testing is needed for point group C1.
This point group has been found:    C1
Largest non-degenerate subgroup:    C1


Mass-centered symmetry-perfected Cartesians (point group C1):

Atom          Symmetry-perfected Cartesians (x, y, z; au)
  0      -1.351119550957   -1.024186494678    1.256114806590
  1       0.179902491883   -4.034955770540   -1.912309240394
  2       2.868766292841   -1.358541775046    3.126701642757
  3      -3.745637979425    0.696748232732   -2.311310544819
  4      -1.092315074228    3.346714712329    2.766427362883
  5      -3.283130364113   -2.497513381128    3.044993653120
  6       3.112289905826    1.347604908402    5.071677664345
  7       1.462043275841    3.310106478514    4.919209155679
  8      -1.959912683898   -3.682048543651   -4.456492898614
  9      -3.602443847493   -1.713442249765   -4.617691047193
 10       5.751043120273    1.323513614682    7.230336059673
 11       1.743201011786    6.104408874916    6.852549586066
 12      -5.723875182493   -1.307301428629   -7.250748245619
 13      -1.762463785033   -6.124732124576   -6.833506895653
 14       4.679256831734    7.578580535667    5.676692910415
 15      -3.664331399620   -0.518617615258   -9.823724117973
 16       7.814166019557    3.844809672016    5.976140462907
 17      -0.570503202672   -4.302958598106   -9.694809223527
 18       7.150331879562    6.539903417038    6.760563280571
 19       7.831090752065    3.653620715921    3.921314482498
 20       9.703956412704    3.371531357297    6.671203801303
 21       8.698208423664    7.783788187629    6.132435968874
 22       7.088271047505    6.652091299256    8.826534324960
 23       4.499017961334    9.579489940859    6.168803614397
 24       4.649830945850    7.429465858589    3.618486280694
 25      -2.235623504713   -3.120246549811  -11.172135887969
 26       0.313225459763   -5.815992888759  -10.798951220175
 27       0.910225983965   -2.926193950844   -9.211539487536
 28      -3.688797843926   -4.462584567652  -11.785140366747
 29      -1.018116505606   -2.750333632343  -12.864370660383
 30      -2.364896682074    0.835365569061   -8.927518839599
 31      -4.770300268096    0.496248687485  -11.247387462847


------------------
SYMMETRY REDUCTION
------------------
ORCA supports only abelian point groups.
It is now checked, if the determined point group is supported:
Point Group ( C1    ) is          ... supported

The point group is C1 - hence turning off symmetry
If this is a round-off problem, please increase the symmetry
        detection tolerance (%method SymThresh)

Storing the symmetry object:
Symmetry file                     ... input_57.sym.tmp
Writing symmetry information      ... done

                       ****************************
                       * Single Point Calculation *
                       ****************************

---------------------------------
CARTESIAN COORDINATES (ANGSTROEM)
---------------------------------
  V     -0.714982   -0.541976    0.664707
  S      0.095200   -2.135207   -1.011950
  S      1.518086   -0.718909    1.654579
  S     -1.982106    0.368703   -1.223093
  S     -0.578028    1.771005    1.463930
  O     -1.737358   -1.321627    1.611341
  C      1.646953    0.713122    2.683816
  C      0.773680    1.751633    2.603133
  C     -1.037141   -1.948456   -2.358274
  C     -1.906331   -0.906715   -2.443577
  S      3.043321    0.700373    3.826129
  S      0.922462    3.230314    3.626213
  S     -3.028944   -0.691794   -3.836931
  S     -0.932656   -3.241069   -3.616136
  C      2.476156    4.010412    3.003977
  C     -1.939081   -0.274441   -5.198491
  C      4.135079    2.034586    3.162437
  C     -0.301897   -2.277028   -5.130272
  C      3.783793    3.460768    3.577536
  H      4.144035    1.933413    2.075070
  H      5.135113    1.784138    3.530249
  H      4.602894    4.119003    3.245145
  H      3.750951    3.520135    4.670801
  H      2.380778    5.069248    3.264390
  H      2.460585    3.931504    1.914820
  C     -1.183041   -1.651163   -5.912040
  H      0.165752   -3.077691   -5.714559
  H      0.481671   -1.548475   -4.874537
  H     -1.952028   -2.361498   -6.236428
  H     -0.538764   -1.455414   -6.807532
  H     -1.251449    0.442056   -4.724239
  H     -2.524334    0.262603   -5.951861

----------------------------
CARTESIAN COORDINATES (A.U.)
----------------------------
  NO LB      ZA    FRAG     MASS         X           Y           Z
   0 V    23.0000    0    50.940   -1.351120   -1.024186    1.256115
   1 S    16.0000    0    32.060    0.179902   -4.034956   -1.912309
   2 S    16.0000    0    32.060    2.868766   -1.358542    3.126702
   3 S    16.0000    0    32.060   -3.745638    0.696748   -2.311311
   4 S    16.0000    0    32.060   -1.092315    3.346715    2.766427
   5 O     8.0000    0    15.999   -3.283130   -2.497513    3.044994
   6 C     6.0000    0    12.011    3.112290    1.347605    5.071678
   7 C     6.0000    0    12.011    1.462043    3.310106    4.919209
   8 C     6.0000    0    12.011   -1.959913   -3.682049   -4.456493
   9 C     6.0000    0    12.011   -3.602444   -1.713442   -4.617691
  10 S    16.0000    0    32.060    5.751043    1.323514    7.230336
  11 S    16.0000    0    32.060    1.743201    6.104409    6.852550
  12 S    16.0000    0    32.060   -5.723875   -1.307301   -7.250748
  13 S    16.0000    0    32.060   -1.762464   -6.124732   -6.833507
  14 C     6.0000    0    12.011    4.679257    7.578581    5.676693
  15 C     6.0000    0    12.011   -3.664331   -0.518618   -9.823724
  16 C     6.0000    0    12.011    7.814166    3.844810    5.976140
  17 C     6.0000    0    12.011   -0.570503   -4.302959   -9.694809
  18 C     6.0000    0    12.011    7.150332    6.539903    6.760563
  19 H     1.0000    0     1.008    7.831091    3.653621    3.921314
  20 H     1.0000    0     1.008    9.703956    3.371531    6.671204
  21 H     1.0000    0     1.008    8.698208    7.783788    6.132436
  22 H     1.0000    0     1.008    7.088271    6.652091    8.826534
  23 H     1.0000    0     1.008    4.499018    9.579490    6.168804
  24 H     1.0000    0     1.008    4.649831    7.429466    3.618486
  25 C     6.0000    0    12.011   -2.235624   -3.120247  -11.172136
  26 H     1.0000    0     1.008    0.313225   -5.815993  -10.798951
  27 H     1.0000    0     1.008    0.910226   -2.926194   -9.211539
  28 H     1.0000    0     1.008   -3.688798   -4.462585  -11.785140
  29 H     1.0000    0     1.008   -1.018117   -2.750334  -12.864371
  30 H     1.0000    0     1.008   -2.364897    0.835366   -8.927519
  31 H     1.0000    0     1.008   -4.770300    0.496249  -11.247387

--------------------------------
INTERNAL COORDINATES (ANGSTROEM)
--------------------------------
 V      0   0   0     0.000000000000     0.00000000     0.00000000
 S      1   0   0     2.450705926780     0.00000000     0.00000000
 S      1   2   0     2.449028752614    85.87805413     0.00000000
 S      1   2   3     2.449230752261    83.42134339   145.68301637
 S      1   2   3     2.450999001328   144.89696133    72.40545805
 O      1   2   3     1.596629051729   107.44943049   252.41997330
 C      3   1   2     1.768233217504   104.07605107   161.62109582
 C      7   3   1     1.359272084308   122.50557588   346.58232842
 C      2   1   3     1.769084835910   103.91191565   198.86723977
 C      9   2   1     1.359409200881   122.54105335    13.41043768
 S      7   3   1     1.804129948072   114.78608601   167.63773693
 S      8   7   3     1.804252237253   122.65090846   181.36879462
 S     10   9   2     1.802189217881   122.56033383   178.29588025
 S      9   2   1     1.806648862444   114.66505665   192.77854534
 C     12   8   7     1.846536157049   102.97582104    67.12481806
 C     13  10   9     1.793274329865   103.66203983   290.71693746
 C     11   7   3     1.847307270039   102.99346653   111.52726052
 C     14   9   2     1.902587446281   102.16519293   246.16441321
 C     17  11   7     1.526336894370   116.17594223    82.65966309
 H     17  11   7     1.092100413891   107.19684027   317.83002299
 H     17  11   7     1.094567352606   104.71262906   203.47913470
 H     19  17  11     1.102126994796   107.75723189   171.10277138
 H     19  17  11     1.095367936422   109.20673686    55.31455777
 H     15  12   8     1.094552553169   104.78471458   156.37489020
 H     15  12   8     1.092121712232   107.06995466    42.04292052
 C     18  14   9     1.333896883252   119.02312462   274.56902180
 H     18  14   9     1.095969136887   101.27782366   156.22924823
 H     18  14   9     1.100076492699   112.74987333    41.42174111
 H     26  18  14     1.095966945016   109.44247631   306.19782546
 H     26  18  14     1.120409169740    99.81940871   194.93787045
 H     16  13  10     1.100508575554   101.77506402   316.75743296
 H     16  13  10     1.094762400686   108.16531134   202.99385972

---------------------------
INTERNAL COORDINATES (A.U.)
---------------------------
 V      0   0   0     0.000000000000     0.00000000     0.00000000
 S      1   0   0     4.631163036392     0.00000000     0.00000000
 S      1   2   0     4.627993636538    85.87805413     0.00000000
 S      1   2   3     4.628375360551    83.42134339   145.68301637
 S      1   2   3     4.631716867025   144.89696133    72.40545805
 O      1   2   3     3.017191645231   107.44943049   252.41997330
 C      3   1   2     3.341476521984   104.07605107   161.62109582
 C      7   3   1     2.568651980826   122.50557588   346.58232842
 C      2   1   3     3.343085847544   103.91191565   198.86723977
 C      9   2   1     2.568911093599   122.54105335    13.41043768
 S      7   3   1     3.409311511862   114.78608601   167.63773693
 S      8   7   3     3.409542604924   122.65090846   181.36879462
 S     10   9   2     3.405644063301   122.56033383   178.29588025
 S      9   2   1     3.414071570179   114.66505665   192.77854534
 C     12   8   7     3.489447633206   102.97582104    67.12481806
 C     13  10   9     3.388797366436   103.66203983   290.71693746
 C     11   7   3     3.490904825575   102.99346653   111.52726052
 C     14   9   2     3.595369219308   102.16519293   246.16441321
 C     17  11   7     2.884358718460   116.17594223    82.65966309
 H     17  11   7     2.063770692996   107.19684027   317.83002299
 H     17  11   7     2.068432531556   104.71262906   203.47913470
 H     19  17  11     2.082718184966   107.75723189   171.10277138
 H     19  17  11     2.069945415717   109.20673686    55.31455777
 H     15  12   8     2.068404564674   104.78471458   156.37489020
 H     15  12   8     2.063810941028   107.06995466    42.04292052
 C     18  14   9     2.520699800238   119.02312462   274.56902180
 H     18  14   9     2.071081519947   101.27782366   156.22924823
 H     18  14   9     2.078843297567   112.74987333    41.42174111
 H     26  18  14     2.071077377911   109.44247631   306.19782546
 H     26  18  14     2.117266488742    99.81940871   194.93787045
 H     16  13  10     2.079659815828   101.77506402   316.75743296
 H     16  13  10     2.068801119011   108.16531134   202.99385972

---------------------
BASIS SET INFORMATION
---------------------
There are 5 groups of distinct atoms

 Group   1 Type V   : 17s11p5d1f contracted to 17s7p3d1f pattern {11111111111111111/3311111/311/1}
 Group   2 Type S   : 14s9p1d contracted to 5s4p1d pattern {73211/6111/1}
 Group   3 Type O   : 11s6p1d contracted to 5s3p1d pattern {62111/411/1}
 Group   4 Type C   : 11s6p1d contracted to 5s3p1d pattern {62111/411/1}
 Group   5 Type H   : 5s1p contracted to 3s1p pattern {311/1}

Atom   0V    basis set group =>   1
Atom   1S    basis set group =>   2
Atom   2S    basis set group =>   2
Atom   3S    basis set group =>   2
Atom   4S    basis set group =>   2
Atom   5O    basis set group =>   3
Atom   6C    basis set group =>   4
Atom   7C    basis set group =>   4
Atom   8C    basis set group =>   4
Atom   9C    basis set group =>   4
Atom  10S    basis set group =>   2
Atom  11S    basis set group =>   2
Atom  12S    basis set group =>   2
Atom  13S    basis set group =>   2
Atom  14C    basis set group =>   4
Atom  15C    basis set group =>   4
Atom  16C    basis set group =>   4
Atom  17C    basis set group =>   4
Atom  18C    basis set group =>   4
Atom  19H    basis set group =>   5
Atom  20H    basis set group =>   5
Atom  21H    basis set group =>   5
Atom  22H    basis set group =>   5
Atom  23H    basis set group =>   5
Atom  24H    basis set group =>   5
Atom  25C    basis set group =>   4
Atom  26H    basis set group =>   5
Atom  27H    basis set group =>   5
Atom  28H    basis set group =>   5
Atom  29H    basis set group =>   5
Atom  30H    basis set group =>   5
Atom  31H    basis set group =>   5

-------------------------
BASIS SET IN INPUT FORMAT
-------------------------

 # Basis set for element : H 
 NewGTO H 
 S 3 
   1      34.0613410000      0.0254393168
   2       5.1235746000      0.1900859340
   3       1.1646626000      0.8524411390
 S 1 
   1       0.3272304100      1.0000000000
 S 1 
   1       0.1030724100      1.0000000000
 P 1 
   1       0.8000000000      1.0000000000
  end;

 # Basis set for element : C 
 NewGTO C 
 S 6 
   1   13575.3496820000      0.0006064601
   2    2035.2333680000      0.0046978985
   3     463.2256235900      0.0243324735
   4     131.2001959800      0.0973999560
   5      42.8530158900      0.3019558443
   6      15.5841857700      0.6623361013
 S 2 
   1       6.2067138500      0.6559530795
   2       2.5764896500      0.3758563390
 S 1 
   1       0.5769633900      1.0000000000
 S 1 
   1       0.2297283100      1.0000000000
 S 1 
   1       0.0951644400      1.0000000000
 P 4 
   1      34.6972322400      0.0113272290
   2       7.9582622800      0.0761696612
   3       2.3780826900      0.3019225154
   4       0.8143320800      0.7278502776
 P 1 
   1       0.2888754700      1.0000000000
 P 1 
   1       0.1005682400      1.0000000000
 D 1 
   1       0.8000000000      1.0000000000
  end;

 # Basis set for element : O 
 NewGTO O 
 S 6 
   1   27032.3826310000      0.0005722654
   2    4052.3871392000      0.0044353333
   3     922.3272271000      0.0230201034
   4     261.2407098900      0.0928224938
   5      85.3546413500      0.2937849971
   6      31.0350352400      0.6740160462
 S 2 
   1      12.2608607300      0.6383993750
   2       4.9987076000      0.3953458663
 S 1 
   1       1.1703108200      1.0000000000
 S 1 
   1       0.4647474100      1.0000000000
 S 1 
   1       0.1850453600      1.0000000000
 P 4 
   1      63.2749548000      0.0120183316
   2      14.6270493800      0.0830054304
   3       4.4501223500      0.3199174388
   4       1.5275799600      0.7071554258
 P 1 
   1       0.5293511800      1.0000000000
 P 1 
   1       0.1747842100      1.0000000000
 D 1 
   1       1.2000000000      1.0000000000
  end;

 # Basis set for element : S 
 NewGTO S 
 S 7 
   1   60700.9281040000      0.0005238013
   2    9102.6106854000      0.0040506304
   3    2071.4166009000      0.0208270003
   4     586.0247682100      0.0814968475
   5     190.5539502100      0.2374911358
   6      67.6303842600      0.4472617145
   7      25.1273069100      0.3489191913
 S 3 
   1     112.5746301000      0.1004556993
   2      34.7955542200      0.4339117282
   3       6.5115556200     -1.2084330582
 S 2 
   1       3.2399032300      0.6749812922
   2       1.5477160900      0.3470879597
 S 1 
   1       0.4054103000      1.0000000000
 S 1 
   1       0.1455065100      1.0000000000
 P 6 
   1     564.3671602700      0.0025564845
   2     133.4262437900      0.0202874255
   3      42.4682711900      0.0927670112
   4      15.6165275800      0.2650208365
   5       6.1093988500      0.4486298663
   6       2.4404160200      0.3596369916
 P 1 
   1       0.8388220100      1.0000000000
 P 1 
   1       0.3128874700      1.0000000000
 P 1 
   1       0.1077010900      1.0000000000
 D 1 
   1       0.5500000000      1.0000000000
  end;

 # Basis set for element : V 
 NewGTO V 
 S 1 
   1  4239814.9912500000      1.0000000000
 S 1 
   1  1695925.9965000001      1.0000000000
 S 1 
   1  678370.3986000001      1.0000000000
 S 1 
   1  271348.1594400000      1.0000000000
 S 1 
   1   40672.0050780000      1.0000000000
 S 1 
   1    9257.0761385000      1.0000000000
 S 1 
   1    2622.7328773000      1.0000000000
 S 1 
   1     858.5948018500      1.0000000000
 S 1 
   1     314.1941865000      1.0000000000
 S 1 
   1     124.4786212700      1.0000000000
 S 1 
   1      50.4693993090      1.0000000000
 S 1 
   1      12.5138469110      1.0000000000
 S 1 
   1       5.3447758082      1.0000000000
 S 1 
   1       1.5755631295      1.0000000000
 S 1 
   1       0.6306903307      1.0000000000
 S 1 
   1       0.0879544416      1.0000000000
 S 1 
   1       0.0342969197      1.0000000000
 P 3 
   1    1450.0319327000     -0.0222847647
   2     343.7504988400     -0.1817959329
   3     110.8252170800     -0.8607412073
 P 3 
   1      41.8224645460     -0.2522537814
   2      17.0880737100     -0.4620379520
   3       7.2613218939     -0.3990010670
 P 1 
   1       2.9458145262      1.0000000000
 P 1 
   1       1.1650209680      1.0000000000
 P 1 
   1       0.4339937839      1.0000000000
 D 3 
   1      27.3603358640      0.0575501019
   2       7.4542765527      0.3023798347
   3       2.4632270217      0.7724212088
 D 1 
   1       0.8249954244      1.0000000000
 D 1 
   1       0.2526297057      1.0000000000
 P 1 
   1       0.1112480000      1.0000000000
 P 1 
   1       0.0363780000      1.0000000000
 F 1 
   1       1.8000000000      1.0000000000
  end;

---------------------------------
AUXILIARY/J BASIS SET INFORMATION
---------------------------------
There are 5 groups of distinct atoms

 Group   1 Type V   : 19s5p5d3f3g contracted to 8s5p5d2f3g pattern {121111111/11111/11111/21/111}
 Group   2 Type S   : 14s5p5d2f1g contracted to 8s4p3d1f1g pattern {71111111/2111/311/2/1}
 Group   3 Type O   : 12s5p4d2f1g contracted to 6s4p3d1f1g pattern {711111/2111/211/2/1}
 Group   4 Type C   : 12s5p4d2f1g contracted to 6s4p3d1f1g pattern {711111/2111/211/2/1}
 Group   5 Type H   : 5s2p1d contracted to 3s1p1d pattern {311/2/1}

Atom   0V    basis set group =>   1
Atom   1S    basis set group =>   2
Atom   2S    basis set group =>   2
Atom   3S    basis set group =>   2
Atom   4S    basis set group =>   2
Atom   5O    basis set group =>   3
Atom   6C    basis set group =>   4
Atom   7C    basis set group =>   4
Atom   8C    basis set group =>   4
Atom   9C    basis set group =>   4
Atom  10S    basis set group =>   2
Atom  11S    basis set group =>   2
Atom  12S    basis set group =>   2
Atom  13S    basis set group =>   2
Atom  14C    basis set group =>   4
Atom  15C    basis set group =>   4
Atom  16C    basis set group =>   4
Atom  17C    basis set group =>   4
Atom  18C    basis set group =>   4
Atom  19H    basis set group =>   5
Atom  20H    basis set group =>   5
Atom  21H    basis set group =>   5
Atom  22H    basis set group =>   5
Atom  23H    basis set group =>   5
Atom  24H    basis set group =>   5
Atom  25C    basis set group =>   4
Atom  26H    basis set group =>   5
Atom  27H    basis set group =>   5
Atom  28H    basis set group =>   5
Atom  29H    basis set group =>   5
Atom  30H    basis set group =>   5
Atom  31H    basis set group =>   5

-------------------------------------
AUXILIARY/J BASIS SET IN INPUT FORMAT
-------------------------------------

 # Auxiliary/J basis set for element : H 
 NewAuxJGTO H 
 S 3 
   1      15.6752927000      0.1007184237
   2       3.6063578000      0.3404257499
   3       1.2080016000      0.6491996172
 S 1 
   1       0.4726794000      1.0000000000
 S 1 
   1       0.2018100000      1.0000000000
 P 2 
   1       2.0281365000      0.5596620919
   2       0.5358730000      0.5596620919
 D 1 
   1       2.2165124000      1.0000000000
  end;

 # Auxiliary/J basis set for element : C 
 NewAuxJGTO C 
 S 7 
   1    1861.0916331000      0.0134602335
   2     642.9939764000      0.0299160374
   3     235.1105725000      0.1008649584
   4      90.7028894000      0.2370970548
   5      36.7794552000      0.3924037254
   6      15.6046273000      0.3195862154
   7       6.8907294000      0.0530104441
 S 1 
   1       3.1478850000     -1.0000000000
 S 1 
   1       1.4777287000      1.0000000000
 S 1 
   1       0.7076466000      1.0000000000
 S 1 
   1       0.3430122000      1.0000000000
 S 1 
   1       0.1669453000      1.0000000000
 P 2 
   1      13.5472892000     -0.6769313712
   2       5.4669419000     -0.3779500978
 P 1 
   1       2.1751721000      1.0000000000
 P 1 
   1       0.8582194000      1.0000000000
 P 1 
   1       0.3376720000      1.0000000000
 D 2 
   1       5.9287253000     -0.3533329857
   2       1.9809209000     -0.7456525731
 D 1 
   1       0.8055417000     -1.0000000000
 D 1 
   1       0.3531244000     -1.0000000000
 F 2 
   1       1.6755626000      0.6311076882
   2       0.5997536000      0.4968166032
 G 1 
   1       1.0024600000     -1.0000000000
  end;

 # Auxiliary/J basis set for element : O 
 NewAuxJGTO O 
 S 7 
   1    2876.8216605000      0.0168151159
   2    1004.7443032000      0.0340137548
   3     369.7579954000      0.1194951309
   4     142.9442404000      0.2664627624
   5      57.8366425000      0.4202764046
   6      24.3864983000      0.2765077335
   7      10.6622662000      0.0057008815
 S 1 
   1       4.8070437000     -1.0000000000
 S 1 
   1       2.2210770000      1.0000000000
 S 1 
   1       1.0447795000      1.0000000000
 S 1 
   1       0.4968425000      1.0000000000
 S 1 
   1       0.2371384000      1.0000000000
 P 2 
   1      64.2613382000     -0.2731534179
   2      16.3006076000     -0.8168011598
 P 1 
   1       4.3550542000      1.0000000000
 P 1 
   1       1.2019554000      1.0000000000
 P 1 
   1       0.3354196000      1.0000000000
 D 2 
   1       9.2146611000     -0.4661230638
   2       2.8435251000     -0.6600908911
 D 1 
   1       0.9955759000     -1.0000000000
 D 1 
   1       0.3649441000     -1.0000000000
 F 2 
   1       2.6420115000      0.5931563945
   2       0.7345613000      0.5931563945
 G 1 
   1       1.3931000000     -1.0000000000
  end;

 # Auxiliary/J basis set for element : S 
 NewAuxJGTO S 
 S 7 
   1    7399.0303145000      0.0295137551
   2    2710.1675859000      0.0559686311
   3    1034.3279062000      0.1764696370
   4     410.4645411000      0.3577969368
   5     168.9762502000      0.4299293578
   6      71.9687889000      0.1259148089
   7      31.6172683000     -0.0646025788
 S 1 
   1      14.2796836000      1.0000000000
 S 1 
   1       6.6060948000      1.0000000000
 S 1 
   1       3.1181477000      1.0000000000
 S 1 
   1       1.4954039000     -1.0000000000
 S 1 
   1       0.7254779000      1.0000000000
 S 1 
   1       0.3544216000      1.0000000000
 S 1 
   1       0.1735525000      1.0000000000
 P 2 
   1      12.6998799000      1.4059102813
   2       4.4295784000     -1.2124994202
 P 1 
   1       1.5232889000      1.0000000000
 P 1 
   1       0.5194667000     -1.0000000000
 P 1 
   1       0.1766547000     -1.0000000000
 D 3 
   1      16.8546461000      1.0295742104
   2       5.0810461000     -0.7461553923
   3       1.5102323000      0.8357028005
 D 1 
   1       0.4451331000      1.0000000000
 D 1 
   1       0.1308362000      1.0000000000
 F 2 
   1       1.0809860000      0.5572698934
   2       0.4161474000      0.5572698934
 G 1 
   1       0.6707100000     -1.0000000000
  end;

 # Auxiliary/J basis set for element : V 
 NewAuxJGTO V 
 S 12 
   1   11942.0842430000      0.0459866720
   2    2430.7110193000      0.1744615821
   3     841.0764301000      0.2900402792
   4     494.7508273000      0.1411212903
   5     291.0298903000      0.2660697186
   6     171.1940483000      0.0446365706
   7      59.2366916000     -0.0408204801
   8      34.8451117000      0.1394665381
   9      20.4971240000      0.2164746715
  10      12.0571314000      0.0864266611
  11       7.0924300000     -0.0568501658
  12       4.1720176000     -0.0126212852
 S 1 
   1       2.4541279000      1.0000000000
 S 1 
   1       1.4436046000      1.0000000000
 S 1 
   1       0.8491792000      1.0000000000
 S 1 
   1       0.2938336000      1.0000000000
 S 1 
   1       0.1728433000      1.0000000000
 S 1 
   1       0.1016725000      1.0000000000
 S 1 
   1       0.0598074000      1.0000000000
 P 1 
   1      16.7130979000     -1.0000000000
 P 1 
   1       4.7454037000     -1.0000000000
 P 1 
   1       1.3889998000      1.0000000000
 P 1 
   1       0.4142440000     -1.0000000000
 P 1 
   1       0.1243234000      1.0000000000
 D 1 
   1       7.7143225000      1.0000000000
 D 1 
   1       3.1170731000      1.0000000000
 D 1 
   1       1.2767950000     -1.0000000000
 D 1 
   1       0.5273386000      1.0000000000
 D 1 
   1       0.2184050000      1.0000000000
 F 2 
   1       3.1309344000     -1.0825667766
   2       1.0419780000      0.1809223232
 F 1 
   1       0.3559044000      1.0000000000
 G 1 
   1       8.7130110000      1.0000000000
 G 1 
   1       2.7493872000      1.0000000000
 G 1 
   1       0.8775089000      1.0000000000
  end;



           ************************************************************
           *        Program running with 8 parallel MPI-processes     *
           *              working on a common directory               *
           ************************************************************
------------------------------------------------------------------------------
                           ORCA GTO INTEGRAL CALCULATION
                           -- RI-GTO INTEGRALS CHOSEN --
------------------------------------------------------------------------------
------------------------------------------------------------------------------
                   ___                                                        
                  /   \      - P O W E R E D   B Y -                         
                 /     \                                                     
                 |  |  |   _    _      __       _____    __    __             
                 |  |  |  | |  | |    /  \     |  _  \  |  |  /  |          
                  \  \/   | |  | |   /    \    | | | |  |  | /  /          
                 / \  \   | |__| |  /  /\  \   | |_| |  |  |/  /          
                |  |  |   |  __  | /  /__\  \  |    /   |      \           
                |  |  |   | |  | | |   __   |  |    \   |  |\   \          
                \     /   | |  | | |  |  |  |  | |\  \  |  | \   \       
                 \___/    |_|  |_| |__|  |__|  |_| \__\ |__|  \__/        
                                                                              
                      - O R C A' S   B I G   F R I E N D -                    
                                      &                                       
                       - I N T E G R A L  F E E D E R -                       
                                                                              
 v1 FN, 2020, v2 2021                                                         
------------------------------------------------------------------------------


Reading SHARK input file input_57.SHARKINP.tmp ... ok
----------------------
SHARK INTEGRAL PACKAGE
----------------------

Number of atoms                             ...     32
Number of basis functions                   ...    517
Number of shells                            ...    255
Maximum angular momentum                    ...      3
Integral batch strategy                     ... SHARK/LIBINT Hybrid
RI-J (if used) integral strategy            ... SPLIT-RIJ (Revised 2003 algorithm where possible)
Printlevel                                  ...      1
Contraction scheme used                     ... SEGMENTED contraction
Coulomb Range Separation                    ... NOT USED
Exchange Range Separation                   ... NOT USED
Finite Nucleus Model                        ... NOT USED
Auxiliary Coulomb fitting basis             ... AVAILABLE
   # of basis functions in Aux-J            ...   1168
   # of shells in Aux-J                     ...    384
   Maximum angular momentum in Aux-J        ...      4
Auxiliary J/K fitting basis                 ... NOT available
Auxiliary Correlation fitting basis         ... NOT available
Auxiliary 'external' fitting basis          ... NOT available
Integral threshold                          ...     1.000000e-10
Primitive cut-off                           ...     1.000000e-11
Primitive pair pre-selection threshold      ...     1.000000e-11

Calculating pre-screening integrals         ... done (  0.1 sec) Dimension = 255
Organizing shell pair data                  ... done (  0.1 sec)
Shell pair information
Total number of shell pairs                 ...     32640
Shell pairs after pre-screening             ...     17837
Total number of primitive shell pairs       ...    123863
Primitive shell pairs kept                  ...     41669
          la=0 lb=0:   5383 shell pairs
          la=1 lb=0:   7064 shell pairs
          la=1 lb=1:   2303 shell pairs
          la=2 lb=0:   1677 shell pairs
          la=2 lb=1:   1118 shell pairs
          la=2 lb=2:    154 shell pairs
          la=3 lb=0:     73 shell pairs
          la=3 lb=1:     52 shell pairs
          la=3 lb=2:     12 shell pairs
          la=3 lb=3:      1 shell pairs

Calculating one electron integrals          ... done (  0.0 sec)
Calculating RI/J V-Matrix + Cholesky decomp.... done (  0.1 sec)
Calculating Nuclear repulsion               ... done (  0.0 sec) ENN=   3212.467413795785 Eh

SHARK setup successfully completed in   0.5 seconds

Maximum memory used throughout the entire GTOINT-calculation: 31.6 MB


           ************************************************************
           *        Program running with 8 parallel MPI-processes     *
           *              working on a common directory               *
           ************************************************************
-------------------------------------------------------------------------------
                                 ORCA SCF
-------------------------------------------------------------------------------

------------
SCF SETTINGS
------------
Hamiltonian:
 Density Functional     Method          .... DFT(GTOs)
 Exchange Functional    Exchange        .... B88
   X-Alpha parameter    XAlpha          ....  0.666667
   Becke's b parameter  XBeta           ....  0.004200
 Correlation Functional Correlation     .... LYP
 LDA part of GGA corr.  LDAOpt          .... VWN-5
 Gradients option       PostSCFGGA      .... off
 Hybrid DFT is turned on
   Fraction HF Exchange ScalHFX         ....  0.200000
   Scaling of DF-GGA-X  ScalDFX         ....  0.720000
   Scaling of DF-GGA-C  ScalDFC         ....  0.810000
   Scaling of DF-LDA-C  ScalLDAC        ....  1.000000
   Perturbative correction              ....  0.000000
   Density functional embedding theory  .... OFF
   NL short-range parameter             ....  4.800000
 RI-approximation to the Coulomb term is turned on
   Number of AuxJ basis functions       .... 1168
   RIJ-COSX (HFX calculated with COS-X)).... on


General Settings:
 Integral files         IntName         .... input_57
 Hartree-Fock type      HFTyp           .... UHF
 Total Charge           Charge          ....   -2
 Multiplicity           Mult            ....    2
 Number of Electrons    NEL             ....  233
 Basis Dimension        Dim             ....  517
 Nuclear Repulsion      ENuc            ....   3212.4674137958 Eh

Convergence Acceleration:
 DIIS                   CNVDIIS         .... on
   Start iteration      DIISMaxIt       ....    12
   Startup error        DIISStart       ....  0.200000
   # of expansion vecs  DIISMaxEq       ....     5
   Bias factor          DIISBfac        ....   1.050
   Max. coefficient     DIISMaxC        ....  10.000
 Trust-Rad. Augm. Hess. CNVTRAH         .... auto
   Auto Start mean grad. ratio tolernc. ....  1.125000
   Auto Start start iteration           ....    20
   Auto Start num. interpolation iter.  ....    10
   Max. Number of Micro iterations      ....    16
   Max. Number of Macro iterations      .... Maxiter - #DIIS iter
   Number of Davidson start vectors     ....     2
   Converg. threshold I  (grad. norm)   ....   5.000e-05
   Converg. threshold II (energy diff.) ....   1.000e-06
   Grad. Scal. Fac. for Micro threshold ....   0.100
   Minimum threshold for Micro iter.    ....   0.010
   NR start threshold (gradient norm)   ....   0.001
   Initial trust radius                 ....   0.400
   Minimum AH scaling param. (alpha)    ....   1.000
   Maximum AH scaling param. (alpha)    .... 1000.000
   Orbital update algorithm             .... Taylor
   White noise on init. David. guess    .... on
   Maximum white noise                  ....   0.010
   Quad. conv. algorithm                .... NR
 SOSCF                  CNVSOSCF        .... off
 Level Shifting         CNVShift        .... on
   Level shift para.    LevelShift      ....    0.2500
   Turn off err/grad.   ShiftErr        ....    0.0010
 Zerner damping         CNVZerner       .... off
 Static damping         CNVDamp         .... on
   Fraction old density DampFac         ....    0.7000
   Max. Damping (<1)    DampMax         ....    0.9800
   Min. Damping (>=0)   DampMin         ....    0.0000
   Turn off err/grad.   DampErr         ....    0.1000
 Fernandez-Rico         CNVRico         .... off

SCF Procedure:
 Maximum # iterations   MaxIter         ....   125
 SCF integral mode      SCFMode         .... Direct
   Integral package                     .... SHARK and LIBINT hybrid scheme
 Reset frequency        DirectResetFreq ....    20
 Integral Threshold     Thresh          ....  1.000e-10 Eh
 Primitive CutOff       TCut            ....  1.000e-11 Eh

Convergence Tolerance:
 Convergence Check Mode ConvCheckMode   .... Total+1el-Energy
 Convergence forced     ConvForced      .... 0
 Energy Change          TolE            ....  1.000e-06 Eh
 1-El. energy change                    ....  1.000e-03 Eh
 DIIS Error             TolErr          ....  1.000e-06


Diagonalization of the overlap matrix:
Smallest eigenvalue                        ... 1.808e-04
Time for diagonalization                   ...    0.099 sec
Threshold for overlap eigenvalues          ... 1.000e-08
Number of eigenvalues below threshold      ... 0
Time for construction of square roots      ...    0.113 sec
Total time needed                          ...    0.214 sec

Time for model grid setup =    0.268 sec

------------------------------
INITIAL GUESS: MODEL POTENTIAL
------------------------------
Loading Hartree-Fock densities                     ... done
Calculating cut-offs                               ... done
Initializing the effective Hamiltonian             ... done
Setting up the integral package (SHARK)            ... done
Starting the Coulomb interaction                   ... done (   0.2 sec)
Reading the grid                                   ... done
Mapping shells                                     ... done
Starting the XC term evaluation                    ... done (   0.1 sec)
  promolecular density results
     # of electrons  =    230.998196773
     EX              =   -307.570517379
     EC              =     -9.028259314
     EX+EC           =   -316.598776693
Transforming the Hamiltonian                       ... done (   0.1 sec)
Diagonalizing the Hamiltonian                      ... done (   0.1 sec)
Back transforming the eigenvectors                 ... done (   0.0 sec)
Now organizing SCF variables                       ... done
                      ------------------
                      INITIAL GUESS DONE (   0.8 sec)
                      ------------------
-------------------
DFT GRID GENERATION
-------------------

General Integration Accuracy     IntAcc      ... 4.388
Radial Grid Type                 RadialGrid  ... OptM3 with GC (2021)
Angular Grid (max. ang.)         AngularGrid ... 4 (Lebedev-302)
Angular grid pruning method      GridPruning ... 4 (adaptive)
Weight generation scheme         WeightScheme... Becke
Basis function cutoff            BFCut       ... 1.0000e-10
Integration weight cutoff        WCut        ... 1.0000e-14
Angular grids for H and He will be reduced by one unit
Partially contracted basis set               ... off
Rotationally invariant grid construction     ... off

Total number of grid points                  ...   184146
Total number of batches                      ...     2892
Average number of points per batch           ...       63
Average number of grid points per atom       ...     5755
Time for grid setup =    1.337 sec

--------------------
COSX GRID GENERATION
--------------------

GRIDX 1
-------
General Integration Accuracy     IntAcc      ... 3.816
Radial Grid Type                 RadialGrid  ... OptM3 with GC (2021)
Angular Grid (max. ang.)         AngularGrid ... 1 (Lebedev-50)
Angular grid pruning method      GridPruning ... 4 (adaptive)
Weight generation scheme         WeightScheme... Becke
Basis function cutoff            BFCut       ... 1.0000e-10
Integration weight cutoff        WCut        ... 1.0000e-14
Angular grids for H and He will be reduced by one unit
Partially contracted basis set               ... on
Rotationally invariant grid construction     ... off

Total number of grid points                  ...    22754
Total number of batches                      ...      374
Average number of points per batch           ...       60
Average number of grid points per atom       ...      711
UseSFitting                                  ... on

GRIDX 2
-------
General Integration Accuracy     IntAcc      ... 4.020
Radial Grid Type                 RadialGrid  ... OptM3 with GC (2021)
Angular Grid (max. ang.)         AngularGrid ... 2 (Lebedev-110)
Angular grid pruning method      GridPruning ... 4 (adaptive)
Weight generation scheme         WeightScheme... Becke
Basis function cutoff            BFCut       ... 1.0000e-10
Integration weight cutoff        WCut        ... 1.0000e-14
Angular grids for H and He will be reduced by one unit
Partially contracted basis set               ... on
Rotationally invariant grid construction     ... off

Total number of grid points                  ...    49153
Total number of batches                      ...      785
Average number of points per batch           ...       62
Average number of grid points per atom       ...     1536
UseSFitting                                  ... on

GRIDX 3
-------
General Integration Accuracy     IntAcc      ... 4.338
Radial Grid Type                 RadialGrid  ... OptM3 with GC (2021)
Angular Grid (max. ang.)         AngularGrid ... 3 (Lebedev-194)
Angular grid pruning method      GridPruning ... 4 (adaptive)
Weight generation scheme         WeightScheme... Becke
Basis function cutoff            BFCut       ... 1.0000e-10
Integration weight cutoff        WCut        ... 1.0000e-14
Angular grids for H and He will be reduced by one unit
Partially contracted basis set               ... on
Rotationally invariant grid construction     ... off

Total number of grid points                  ...   112168
Total number of batches                      ...     1770
Average number of points per batch           ...       63
Average number of grid points per atom       ...     3505
UseSFitting                                  ... on

Time for X-Grid setup             =    1.273 sec

--------------
SCF ITERATIONS
--------------
ITER       Energy         Delta-E        Max-DP      RMS-DP      [F,P]     Damp
               ***  Starting incremental Fock matrix formation  ***
  0  -4591.9477156516   0.000000000000 0.07489235  0.00091986  0.2236751 0.7000
  1  -4592.2418437376  -0.294128086009 0.11730967  0.00092689  0.1560071 0.7000
                               ***Turning on DIIS***
  2  -4592.3910781686  -0.149234430995 0.08339871  0.00058787  0.1091632 0.7000
  3  -4592.4732697407  -0.082191572140 0.11378526  0.00092044  0.0772160 0.0000
  4  -4592.6680807217  -0.194810980970 0.07223695  0.00050381  0.0142768 0.0000
  5  -4592.6735901538  -0.005509432110 0.01277093  0.00010671  0.0102538 0.0000
  6  -4592.6747678970  -0.001177743180 0.00217972  0.00004461  0.0025208 0.0000
  7  -4592.6749688155  -0.000200918524 0.00140663  0.00002199  0.0012857 0.0000
  8  -4592.6750341864  -0.000065370893 0.00122052  0.00001581  0.0010860 0.0000
  9  -4592.6750698351  -0.000035648661 0.00230733  0.00002221  0.0006780 0.0000
               *** Restarting incremental Fock matrix formation ***
                                   *** Resetting DIIS ***
 10  -4592.6750871019  -0.000017266782 0.00160036  0.00001479  0.0006540 0.0000
 11  -4592.6750604529   0.000026648952 0.00032360  0.00000381  0.0018407 0.0000
 12  -4592.6750930156  -0.000032562713 0.00051765  0.00000595  0.0007546 0.0000
 13  -4592.6751000198  -0.000007004134 0.00039311  0.00000392  0.0002410 0.0000
 14  -4592.6751027220  -0.000002702196 0.00030823  0.00000265  0.0001622 0.0000
 15  -4592.6751033619  -0.000000639974 0.00019179  0.00000172  0.0001120 0.0000
 16  -4592.6751035022  -0.000000140229 0.00018481  0.00000148  0.0000887 0.0000
                 **** Energy Check signals convergence ****

               *****************************************************
               *                     SUCCESS                       *
               *           SCF CONVERGED AFTER  17 CYCLES          *
               *****************************************************

Old exchange energy                            =    -61.767767768 Eh
New exchange energy                            =    -61.767725494 Eh
Exchange energy change after final integration =      0.000042274 Eh
Total energy after final integration           =  -4592.675061444 Eh
Final COS-X integration done in                =    12.602 sec

----------------
TOTAL SCF ENERGY
----------------

Total Energy       :        -4592.67506144 Eh         -124973.04193 eV

Components:
Nuclear Repulsion  :         3212.46741380 Eh           87415.68246 eV
Electronic Energy  :        -7805.14247524 Eh         -212388.72439 eV
One Electron Energy:       -12788.55581694 Eh         -347994.29547 eV
Two Electron Energy:         4983.41334170 Eh          135605.57108 eV
Max COSX asymmetry :            0.00000123 Eh               0.00003 eV

Virial components:
Potential Energy   :        -9173.98991616 Eh         -249636.95692 eV
Kinetic Energy     :         4581.31485471 Eh          124663.91499 eV
Virial Ratio       :            2.00247968


DFT components:
N(Alpha)           :      117.000069536831 electrons
N(Beta)            :      116.000063531197 electrons
N(Total)           :      233.000133068028 electrons
E(X)               :     -245.513675808239 Eh       
E(C)               :      -10.626239251787 Eh       
E(XC)              :     -256.139915060026 Eh       
DFET-embed. en.    :        0.000000000000 Eh       

---------------
SCF CONVERGENCE
---------------

  Last Energy change         ...   -2.1614e-07  Tolerance :   1.0000e-06
  Last MAX-Density change    ...    0.0000e+00  Tolerance :   1.0000e-05
  Last RMS-Density change    ...    0.0000e+00  Tolerance :   1.0000e-06
  Last DIIS Error            ...    1.8750e-05  Tolerance :   1.0000e-06

             **** THE GBW FILE WAS UPDATED (input_57.gbw) ****
             **** DENSITY input_57.scfp WAS UPDATED ****
             **** ENERGY FILE WAS UPDATED (input_57.en.tmp) ****
----------------------
UHF SPIN CONTAMINATION
----------------------

Warning: in a DFT calculation there is little theoretical justification to 
         calculate <S**2> as in Hartree-Fock theory. We will do it anyways
         but you should keep in mind that the values have only limited relevance

Expectation value of <S**2>     :     0.764839
Ideal value S*(S+1) for S=0.5   :     0.750000
Deviation                       :     0.014839

             **** THE GBW FILE WAS UPDATED (input_57.gbw) ****
             **** DENSITY input_57.scfp WAS UPDATED ****
----------------
ORBITAL ENERGIES
----------------
                 SPIN UP ORBITALS
  NO   OCC          E(Eh)            E(eV) 
   0   1.0000    -196.640034     -5350.8474 
   1   1.0000     -88.676486     -2413.0099 
   2   1.0000     -88.676468     -2413.0094 
   3   1.0000     -88.676371     -2413.0067 
   4   1.0000     -88.676060     -2412.9983 
   5   1.0000     -88.612183     -2411.2601 
   6   1.0000     -88.611883     -2411.2519 
   7   1.0000     -88.611847     -2411.2509 
   8   1.0000     -88.611654     -2411.2457 
   9   1.0000     -22.015841      -599.0815 
  10   1.0000     -18.857082      -513.1273 
  11   1.0000     -18.522668      -504.0274 
  12   1.0000     -18.516890      -503.8702 
  13   1.0000     -18.516854      -503.8692 
  14   1.0000     -10.024260      -272.7740 
  15   1.0000     -10.015425      -272.5336 
  16   1.0000     -10.015197      -272.5274 
  17   1.0000     -10.005472      -272.2627 
  18   1.0000     -10.004600      -272.2390 
  19   1.0000     -10.003294      -272.2035 
  20   1.0000      -9.992493      -271.9096 
  21   1.0000      -9.991725      -271.8887 
  22   1.0000      -9.991003      -271.8690 
  23   1.0000      -9.990329      -271.8507 
  24   1.0000      -7.730907      -210.3687 
  25   1.0000      -7.730125      -210.3474 
  26   1.0000      -7.730024      -210.3446 
  27   1.0000      -7.729147      -210.3208 
  28   1.0000      -7.666622      -208.6194 
  29   1.0000      -7.666311      -208.6109 
  30   1.0000      -7.666283      -208.6102 
  31   1.0000      -7.666068      -208.6043 
  32   1.0000      -5.696046      -154.9973 
  33   1.0000      -5.695372      -154.9789 
  34   1.0000      -5.695272      -154.9762 
  35   1.0000      -5.694354      -154.9513 
  36   1.0000      -5.692078      -154.8893 
  37   1.0000      -5.691477      -154.8730 
  38   1.0000      -5.691374      -154.8702 
  39   1.0000      -5.690667      -154.8509 
  40   1.0000      -5.685772      -154.7177 
  41   1.0000      -5.684876      -154.6933 
  42   1.0000      -5.684770      -154.6905 
  43   1.0000      -5.683897      -154.6667 
  44   1.0000      -5.631464      -153.2399 
  45   1.0000      -5.631164      -153.2318 
  46   1.0000      -5.631130      -153.2308 
  47   1.0000      -5.630930      -153.2254 
  48   1.0000      -5.625067      -153.0659 
  49   1.0000      -5.624745      -153.0571 
  50   1.0000      -5.624720      -153.0564 
  51   1.0000      -5.624607      -153.0533 
  52   1.0000      -5.624498      -153.0504 
  53   1.0000      -5.624294      -153.0448 
  54   1.0000      -5.624268      -153.0441 
  55   1.0000      -5.624046      -153.0381 
  56   1.0000      -2.409524       -65.5665 
  57   1.0000      -1.450886       -39.4806 
  58   1.0000      -1.439301       -39.1654 
  59   1.0000      -1.438228       -39.1362 
  60   1.0000      -0.658164       -17.9096 
  61   1.0000      -0.643697       -17.5159 
  62   1.0000      -0.618187       -16.8217 
  63   1.0000      -0.607282       -16.5250 
  64   1.0000      -0.593576       -16.1520 
  65   1.0000      -0.575697       -15.6655 
  66   1.0000      -0.572941       -15.5905 
  67   1.0000      -0.501522       -13.6471 
  68   1.0000      -0.490514       -13.3476 
  69   1.0000      -0.486947       -13.2505 
  70   1.0000      -0.472612       -12.8604 
  71   1.0000      -0.422597       -11.4995 
  72   1.0000      -0.419959       -11.4277 
  73   1.0000      -0.410647       -11.1743 
  74   1.0000      -0.402814       -10.9611 
  75   1.0000      -0.375915       -10.2292 
  76   1.0000      -0.372895       -10.1470 
  77   1.0000      -0.300956        -8.1894 
  78   1.0000      -0.292762        -7.9665 
  79   1.0000      -0.285909        -7.7800 
  80   1.0000      -0.277615        -7.5543 
  81   1.0000      -0.259926        -7.0729 
  82   1.0000      -0.255616        -6.9557 
  83   1.0000      -0.242860        -6.6086 
  84   1.0000      -0.239604        -6.5200 
  85   1.0000      -0.211420        -5.7530 
  86   1.0000      -0.194926        -5.3042 
  87   1.0000      -0.192214        -5.2304 
  88   1.0000      -0.191228        -5.2036 
  89   1.0000      -0.184598        -5.0232 
  90   1.0000      -0.181168        -4.9298 
  91   1.0000      -0.161951        -4.4069 
  92   1.0000      -0.149928        -4.0797 
  93   1.0000      -0.148385        -4.0378 
  94   1.0000      -0.143513        -3.9052 
  95   1.0000      -0.142314        -3.8726 
  96   1.0000      -0.137388        -3.7385 
  97   1.0000      -0.097415        -2.6508 
  98   1.0000      -0.095934        -2.6105 
  99   1.0000      -0.088824        -2.4170 
 100   1.0000      -0.083296        -2.2666 
 101   1.0000      -0.080146        -2.1809 
 102   1.0000      -0.079848        -2.1728 
 103   1.0000      -0.069062        -1.8793 
 104   1.0000      -0.050059        -1.3622 
 105   1.0000      -0.038364        -1.0439 
 106   1.0000      -0.037871        -1.0305 
 107   1.0000      -0.035553        -0.9674 
 108   1.0000      -0.031665        -0.8616 
 109   1.0000      -0.012951        -0.3524 
 110   1.0000      -0.004132        -0.1124 
 111   1.0000      -0.003077        -0.0837 
 112   1.0000       0.006337         0.1724 
 113   1.0000       0.010751         0.2926 
 114   1.0000       0.016359         0.4452 
 115   1.0000       0.033711         0.9173 
 116   1.0000       0.059880         1.6294 
 117   0.0000       0.187794         5.1101 
 118   0.0000       0.193365         5.2617 
 119   0.0000       0.195384         5.3167 
 120   0.0000       0.196564         5.3488 
 121   0.0000       0.211554         5.7567 
 122   0.0000       0.213027         5.7968 
 123   0.0000       0.217925         5.9300 
 124   0.0000       0.222598         6.0572 
 125   0.0000       0.226441         6.1618 
 126   0.0000       0.234109         6.3704 
 127   0.0000       0.240254         6.5376 
 128   0.0000       0.243240         6.6189 
 129   0.0000       0.244094         6.6421 
 130   0.0000       0.246977         6.7206 
 131   0.0000       0.247664         6.7393 
 132   0.0000       0.252861         6.8807 
 133   0.0000       0.253725         6.9042 
 134   0.0000       0.255943         6.9646 
 135   0.0000       0.260276         7.0825 
 136   0.0000       0.270876         7.3709 
 137   0.0000       0.275405         7.4942 
 138   0.0000       0.277550         7.5525 
 139   0.0000       0.282029         7.6744 
 140   0.0000       0.284125         7.7314 
 141   0.0000       0.284841         7.7509 
 142   0.0000       0.285375         7.7654 
 143   0.0000       0.291857         7.9418 
 144   0.0000       0.299401         8.1471 
 145   0.0000       0.309340         8.4176 
 146   0.0000       0.310110         8.4385 
 147   0.0000       0.319985         8.7072 
 148   0.0000       0.324831         8.8391 
 149   0.0000       0.327434         8.9099 
 150   0.0000       0.348101         9.4723 
 151   0.0000       0.359815         9.7911 
 152   0.0000       0.366322         9.9681 
 153   0.0000       0.374924        10.2022 
 154   0.0000       0.383345        10.4313 
 155   0.0000       0.395409        10.7596 
 156   0.0000       0.395631        10.7657 
 157   0.0000       0.400076        10.8866 
 158   0.0000       0.404251        11.0002 
 159   0.0000       0.414481        11.2786 
 160   0.0000       0.417652        11.3649 
 161   0.0000       0.426329        11.6010 
 162   0.0000       0.428118        11.6497 
 163   0.0000       0.431848        11.7512 
 164   0.0000       0.448113        12.1938 
 165   0.0000       0.453505        12.3405 
 166   0.0000       0.455121        12.3845 
 167   0.0000       0.457146        12.4396 
 168   0.0000       0.459631        12.5072 
 169   0.0000       0.463815        12.6210 
 170   0.0000       0.473797        12.8927 
 171   0.0000       0.476973        12.9791 
 172   0.0000       0.480121        13.0648 
 173   0.0000       0.484177        13.1751 
 174   0.0000       0.491843        13.3837 
 175   0.0000       0.495560        13.4849 
 176   0.0000       0.498259        13.5583 
 177   0.0000       0.500440        13.6177 
 178   0.0000       0.503878        13.7112 
 179   0.0000       0.510751        13.8982 
 180   0.0000       0.512329        13.9412 
 181   0.0000       0.518040        14.0966 
 182   0.0000       0.521319        14.1858 
 183   0.0000       0.523251        14.2384 
 184   0.0000       0.534485        14.5441 
 185   0.0000       0.537305        14.6208 
 186   0.0000       0.550846        14.9893 
 187   0.0000       0.552666        15.0388 
 188   0.0000       0.555319        15.1110 
 189   0.0000       0.556229        15.1358 
 190   0.0000       0.556882        15.1535 
 191   0.0000       0.568229        15.4623 
 192   0.0000       0.571563        15.5530 
 193   0.0000       0.575828        15.6691 
 194   0.0000       0.575948        15.6723 
 195   0.0000       0.578280        15.7358 
 196   0.0000       0.581944        15.8355 
 197   0.0000       0.585054        15.9201 
 198   0.0000       0.586501        15.9595 
 199   0.0000       0.591714        16.1014 
 200   0.0000       0.594321        16.1723 
 201   0.0000       0.596013        16.2183 
 202   0.0000       0.603757        16.4291 
 203   0.0000       0.607213        16.5231 
 204   0.0000       0.614483        16.7209 
 205   0.0000       0.616751        16.7826 
 206   0.0000       0.620079        16.8732 
 207   0.0000       0.626769        17.0553 
 208   0.0000       0.630384        17.1536 
 209   0.0000       0.632582        17.2134 
 210   0.0000       0.635413        17.2905 
 211   0.0000       0.645019        17.5519 
 212   0.0000       0.650162        17.6918 
 213   0.0000       0.651285        17.7224 
 214   0.0000       0.652634        17.7591 
 215   0.0000       0.659485        17.9455 
 216   0.0000       0.661384        17.9972 
 217   0.0000       0.669222        18.2105 
 218   0.0000       0.671825        18.2813 
 219   0.0000       0.677177        18.4269 
 220   0.0000       0.681919        18.5560 
 221   0.0000       0.690642        18.7933 
 222   0.0000       0.704204        19.1624 
 223   0.0000       0.716530        19.4978 
 224   0.0000       0.721739        19.6395 
 225   0.0000       0.732158        19.9230 
 226   0.0000       0.735756        20.0209 
 227   0.0000       0.746327        20.3086 
 228   0.0000       0.751336        20.4449 
 229   0.0000       0.754701        20.5365 
 230   0.0000       0.773007        21.0346 
 231   0.0000       0.777737        21.1633 
 232   0.0000       0.792334        21.5605 
 233   0.0000       0.799980        21.7686 
 234   0.0000       0.802404        21.8345 
 235   0.0000       0.839062        22.8320 
 236   0.0000       0.862610        23.4728 
 237   0.0000       0.867999        23.6195 
 238   0.0000       0.873453        23.7679 
 239   0.0000       0.885756        24.1026 
 240   0.0000       0.890155        24.2224 
 241   0.0000       0.904119        24.6023 
 242   0.0000       0.912339        24.8260 
 243   0.0000       0.914249        24.8780 
 244   0.0000       0.915772        24.9194 
 245   0.0000       0.921346        25.0711 
 246   0.0000       0.930030        25.3074 
 247   0.0000       0.948779        25.8176 
 248   0.0000       0.961609        26.1667 
 249   0.0000       0.972581        26.4653 
 250   0.0000       0.978542        26.6275 
 251   0.0000       0.982854        26.7448 
 252   0.0000       0.984900        26.8005 
 253   0.0000       0.987976        26.8842 
 254   0.0000       0.998402        27.1679 
 255   0.0000       1.001730        27.2584 
 256   0.0000       1.005216        27.3533 
 257   0.0000       1.020436        27.7675 
 258   0.0000       1.029520        28.0147 
 259   0.0000       1.030797        28.0494 
 260   0.0000       1.056713        28.7546 
 261   0.0000       1.057840        28.7853 
 262   0.0000       1.058756        28.8102 
 263   0.0000       1.060234        28.8504 
 264   0.0000       1.079000        29.3611 
 265   0.0000       1.090768        29.6813 
 266   0.0000       1.101198        29.9651 
 267   0.0000       1.119374        30.4597 
 268   0.0000       1.121899        30.5284 
 269   0.0000       1.124007        30.5858 
 270   0.0000       1.124563        30.6009 
 271   0.0000       1.132840        30.8261 
 272   0.0000       1.134937        30.8832 
 273   0.0000       1.136233        30.9185 
 274   0.0000       1.138169        30.9712 
 275   0.0000       1.150737        31.3131 
 276   0.0000       1.156185        31.4614 
 277   0.0000       1.162523        31.6339 
 278   0.0000       1.179515        32.0962 
 279   0.0000       1.193153        32.4673 
 280   0.0000       1.200753        32.6741 
 281   0.0000       1.238582        33.7035 
 282   0.0000       1.239296        33.7230 
 283   0.0000       1.273181        34.6450 
 284   0.0000       1.275159        34.6988 
 285   0.0000       1.288210        35.0540 
 286   0.0000       1.299301        35.3558 
 287   0.0000       1.305474        35.5237 
 288   0.0000       1.315729        35.8028 
 289   0.0000       1.351603        36.7790 
 290   0.0000       1.357135        36.9295 
 291   0.0000       1.367316        37.2066 
 292   0.0000       1.380333        37.5608 
 293   0.0000       1.406019        38.2597 
 294   0.0000       1.411271        38.4026 
 295   0.0000       1.421447        38.6795 
 296   0.0000       1.425819        38.7985 
 297   0.0000       1.441085        39.2139 
 298   0.0000       1.447034        39.3758 
 299   0.0000       1.457024        39.6476 
 300   0.0000       1.464524        39.8517 
 301   0.0000       1.469618        39.9903 
 302   0.0000       1.484361        40.3915 
 303   0.0000       1.488965        40.5168 
 304   0.0000       1.490378        40.5553 
 305   0.0000       1.501969        40.8707 
 306   0.0000       1.520277        41.3688 
 307   0.0000       1.529111        41.6092 
 308   0.0000       1.550062        42.1793 
 309   0.0000       1.558057        42.3969 
 310   0.0000       1.565673        42.6041 
 311   0.0000       1.573576        42.8192 
 312   0.0000       1.604215        43.6529 
 313   0.0000       1.612224        43.8708 
 314   0.0000       1.614862        43.9426 
 315   0.0000       1.619998        44.0824 
 316   0.0000       1.636329        44.5268 
 317   0.0000       1.656067        45.0639 
 318   0.0000       1.662077        45.2274 
 319   0.0000       1.668655        45.4064 
 320   0.0000       1.671425        45.4818 
 321   0.0000       1.674666        45.5700 
 322   0.0000       1.679851        45.7111 
 323   0.0000       1.695782        46.1446 
 324   0.0000       1.704388        46.3788 
 325   0.0000       1.711074        46.5607 
 326   0.0000       1.722971        46.8844 
 327   0.0000       1.736260        47.2460 
 328   0.0000       1.742893        47.4265 
 329   0.0000       1.752201        47.6798 
 330   0.0000       1.761161        47.9236 
 331   0.0000       1.772496        48.2321 
 332   0.0000       1.776543        48.3422 
 333   0.0000       1.791795        48.7572 
 334   0.0000       1.795658        48.8623 
 335   0.0000       1.799015        48.9537 
 336   0.0000       1.806582        49.1596 
 337   0.0000       1.815736        49.4087 
 338   0.0000       1.833724        49.8982 
 339   0.0000       1.841244        50.1028 
 340   0.0000       1.844343        50.1871 
 341   0.0000       1.847275        50.2669 
 342   0.0000       1.851991        50.3952 
 343   0.0000       1.856685        50.5230 
 344   0.0000       1.866027        50.7772 
 345   0.0000       1.870916        50.9102 
 346   0.0000       1.881582        51.2005 
 347   0.0000       1.908119        51.9225 
 348   0.0000       1.921047        52.2744 
 349   0.0000       1.931338        52.5544 
 350   0.0000       1.932996        52.5995 
 351   0.0000       1.939464        52.7755 
 352   0.0000       1.949335        53.0441 
 353   0.0000       1.953815        53.1660 
 354   0.0000       1.958803        53.3018 
 355   0.0000       1.962176        53.3935 
 356   0.0000       1.969364        53.5891 
 357   0.0000       1.984014        53.9878 
 358   0.0000       2.008353        54.6501 
 359   0.0000       2.013180        54.7814 
 360   0.0000       2.042686        55.5843 
 361   0.0000       2.055762        55.9401 
 362   0.0000       2.069099        56.3030 
 363   0.0000       2.075177        56.4684 
 364   0.0000       2.076762        56.5116 
 365   0.0000       2.097962        57.0884 
 366   0.0000       2.112731        57.4903 
 367   0.0000       2.126384        57.8619 
 368   0.0000       2.132962        58.0409 
 369   0.0000       2.155900        58.6650 
 370   0.0000       2.162592        58.8471 
 371   0.0000       2.167289        58.9749 
 372   0.0000       2.175995        59.2118 
 373   0.0000       2.186950        59.5099 
 374   0.0000       2.194455        59.7142 
 375   0.0000       2.195833        59.7516 
 376   0.0000       2.208718        60.1023 
 377   0.0000       2.213684        60.2374 
 378   0.0000       2.219770        60.4030 
 379   0.0000       2.229012        60.6545 
 380   0.0000       2.235172        60.8221 
 381   0.0000       2.239110        60.9293 
 382   0.0000       2.246041        61.1179 
 383   0.0000       2.266261        61.6681 
 384   0.0000       2.273998        61.8786 
 385   0.0000       2.286852        62.2284 
 386   0.0000       2.288664        62.2777 
 387   0.0000       2.295418        62.4615 
 388   0.0000       2.310288        62.8661 
 389   0.0000       2.318890        63.1002 
 390   0.0000       2.322564        63.2002 
 391   0.0000       2.328878        63.3720 
 392   0.0000       2.356834        64.1327 
 393   0.0000       2.361763        64.2669 
 394   0.0000       2.395273        65.1787 
 395   0.0000       2.404814        65.4383 
 396   0.0000       2.406316        65.4792 
 397   0.0000       2.412065        65.6356 
 398   0.0000       2.416095        65.7453 
 399   0.0000       2.421665        65.8969 
 400   0.0000       2.446839        66.5819 
 401   0.0000       2.454208        66.7824 
 402   0.0000       2.471673        67.2577 
 403   0.0000       2.511424        68.3393 
 404   0.0000       2.519256        68.5524 
 405   0.0000       2.527933        68.7885 
 406   0.0000       2.534252        68.9605 
 407   0.0000       2.545196        69.2583 
 408   0.0000       2.551865        69.4398 
 409   0.0000       2.553435        69.4825 
 410   0.0000       2.569923        69.9312 
 411   0.0000       2.580925        70.2305 
 412   0.0000       2.597769        70.6889 
 413   0.0000       2.607036        70.9411 
 414   0.0000       2.616944        71.2107 
 415   0.0000       2.619526        71.2809 
 416   0.0000       2.619999        71.2938 
 417   0.0000       2.635237        71.7084 
 418   0.0000       2.642140        71.8963 
 419   0.0000       2.659923        72.3802 
 420   0.0000       2.672378        72.7191 
 421   0.0000       2.679982        72.9260 
 422   0.0000       2.700815        73.4929 
 423   0.0000       2.743882        74.6648 
 424   0.0000       2.763227        75.1912 
 425   0.0000       2.774531        75.4988 
 426   0.0000       2.781491        75.6882 
 427   0.0000       2.799864        76.1882 
 428   0.0000       2.823420        76.8292 
 429   0.0000       2.828659        76.9717 
 430   0.0000       2.833158        77.0941 
 431   0.0000       2.854515        77.6753 
 432   0.0000       2.856898        77.7402 
 433   0.0000       2.863980        77.9329 
 434   0.0000       2.889902        78.6382 
 435   0.0000       2.893987        78.7494 
 436   0.0000       2.907881        79.1275 
 437   0.0000       2.911154        79.2165 
 438   0.0000       2.912160        79.2439 
 439   0.0000       2.920508        79.4711 
 440   0.0000       2.926793        79.6421 
 441   0.0000       2.949891        80.2706 
 442   0.0000       2.951571        80.3163 
 443   0.0000       2.964796        80.6762 
 444   0.0000       2.976113        80.9842 
 445   0.0000       3.012667        81.9788 
 446   0.0000       3.026309        82.3500 
 447   0.0000       3.049846        82.9905 
 448   0.0000       3.053552        83.0914 
 449   0.0000       3.054619        83.1204 
 450   0.0000       3.056784        83.1793 
 451   0.0000       3.170077        86.2622 
 452   0.0000       3.189411        86.7883 
 453   0.0000       3.328944        90.5852 
 454   0.0000       3.333916        90.7205 
 455   0.0000       3.364350        91.5486 
 456   0.0000       3.399531        92.5059 
 457   0.0000       3.430625        93.3521 
 458   0.0000       3.445451        93.7555 
 459   0.0000       3.452098        93.9364 
 460   0.0000       3.481746        94.7431 
 461   0.0000       3.516873        95.6990 
 462   0.0000       3.521497        95.8248 
 463   0.0000       3.524351        95.9025 
 464   0.0000       3.541037        96.3565 
 465   0.0000       3.576163        97.3123 
 466   0.0000       3.579709        97.4088 
 467   0.0000       3.586717        97.5995 
 468   0.0000       3.661598        99.6372 
 469   0.0000       3.801906       103.4551 
 470   0.0000       3.844593       104.6167 
 471   0.0000       3.861336       105.0723 
 472   0.0000       3.994818       108.7045 
 473   0.0000       4.215964       114.7222 
 474   0.0000       4.542676       123.6125 
 475   0.0000       4.559806       124.0786 
 476   0.0000       4.563034       124.1665 
 477   0.0000       4.591268       124.9348 
 478   0.0000       4.619396       125.7001 
 479   0.0000       4.619790       125.7109 
 480   0.0000       5.202529       141.5680 
 481   0.0000       7.008434       190.7092 
 482   0.0000       7.055402       191.9872 
 483   0.0000       7.058927       192.0832 
 484   0.0000      18.718488       509.3560 
 485   0.0000      18.761167       510.5173 
 486   0.0000      19.001237       517.0500 
 487   0.0000      19.018186       517.5112 
 488   0.0000      19.049852       518.3728 
 489   0.0000      19.062597       518.7196 
[...]
Total number of batches                      ...      236
Average number of points per batch           ...       59
Average number of grid points per atom       ...      436

Memory available               ... 870.3 MB
Memory needed per perturbation ...  23.5 MB
Perturbations treated per batch... 3
Number of batches              ... 1
     CP-SCF ITERATION   0:   4.5296e-02 (   2.9 sec   0/  3 done)
     CP-SCF ITERATION   1:   1.4523e-03 (   2.9 sec   0/  3 done)
     CP-SCF ITERATION   2:   4.4106e-04 (   2.9 sec   3/  3 done)
                    *** THE CP-SCF HAS CONVERGED ***

Forming final perturbed densities           ... done
Transforming perturbed density to AO basis  ... done

 Raw HFC matrix (all values in MHz): 
 -----------------------------------
                -0.5618              -0.0138               0.1461
                -0.0140              -0.4883              -0.2980
                 0.1452              -0.2981               0.8662

 A(FC)          -0.0604              -0.0604              -0.0604
 A(SD)          -0.4855              -0.5265               1.0120
 A(ORB+DIA)      0.0030               0.0029              -0.0087    A(PC) =  -0.0009
 A(ORB)          0.0031               0.0030              -0.0089    A(PC) =  -0.0009
 A(DIA)         -0.0001              -0.0001               0.0002    A(PC) =   0.0000
             ----------           ----------           ----------
 A(Tot)         -0.5429              -0.5839               0.9429    A(iso)=   -0.0613
 Orientation: 
  X           0.4441590           -0.8907407            0.0964566
  Y           0.8847542            0.4190956           -0.2038845
  Z           0.1411837            0.1758975            0.9742316

Notes:  (1) The A matrix conforms to the "SAI" spin Hamiltonian convention.
        (2) Tensor is right-handed.

 Raw EFG matrix (all values in a.u.**-3):
 -----------------------------------
             0.0347       0.1715       0.1071
             0.1715       0.0333       0.1076
             0.1071       0.1076      -0.0680

 V(El)       0.3280       0.6922      -1.0202
 V(Nuc)     -0.4634      -0.8299       1.2933
         ----------   ----------   ----------
 V(Tot)     -0.1354      -0.1377       0.2731 
 Orientation: 
  X       0.4680387    0.6021711   -0.6467841
  Y       0.0851862   -0.7592331   -0.6452196
  Z      -0.8795926    0.2468907   -0.4066471

Note: Tensor is right-handed


 Quadrupole tensor eigenvalues (in MHz;Q= 0.0029 I=  1.0)
  e**2qQ            =     0.183409 MHz 
  e**2qQ/(4I*(2I-1))=     0.045852 MHz 
  eta               =     0.008412
  NOTE: the diagonal representation of the SH term I*Q*I = e**2qQ/(4I(2I-1))*[-(1-eta),-(1+eta),2]

 RHO(0)=      0.432720497 a.u.**-3

 -----------------------------------------------------------
 Nucleus  31H : A:ISTP=    1 I=  0.5 P=533.5514 MHz/au**3
                Q:ISTP=    2 I=  1.0 Q=  0.0029 barn     
 -----------------------------------------------------------
 Solving for nuclear perturbation:
Forming RHS of the CP-SCF equations         ... 
Calc. nucleus orbit integrals (SHARK)       ... done

------------------------------------------------------------------------------
                           ORCA CP-SCF CALCULATION
------------------------------------------------------------------------------

Input orbitals are from        ... input_57.gbw
Input Perturbation             ... input_57.pin.tmp
Wavefunction output            ... input_57.pout.tmp
Perturbation mode              ... Imaginary perturbation
Solver                         ... POPLE
Max. number of iterations      ... 64
Convergence tolerance          ... 1.000e-03
Integral handling              ... Direct
DFT GridXC                     ... 1
COSX GridX                     ... 1
COSX IntAccX                   ... 3.067
COSX Algorithm                 ... Auto
Number of perturbations        ... 3
Number of operators            ... 2
Orbital ranges used for CP-SCF:
 Operator 0:  Orbitals   0...116  to 117...516
 Operator 1:  Orbitals   0...115  to 116...516
Variables per perturbation     ... 93316
DFT calculation                         ... on
XC functional terms                     ... off
Hybrid DFT                              ... on
   Exchange mixing (SCF)                ...  0.200
   Exchange mixing (CP-SCF)             ...  0.200
   GGA exch. scaling(SCF)               ...  0.720
   GGA exch. scaling (CP-SCF)           ...  0.720
   GGA corr. scaling (SCF)              ...  0.810
   GGA corr. scaling (CP-SCF)           ...  0.810

CP-SCF GRID
-----------

General Integration Accuracy     IntAcc      ... 3.467
Radial Grid Type                 RadialGrid  ... OptM3 with GC (2021)
Angular Grid (max. ang.)         AngularGrid ... 1 (Lebedev-50)
Angular grid pruning method      GridPruning ... 4 (adaptive)
Weight generation scheme         WeightScheme... Becke
Basis function cutoff            BFCut       ... 1.0000e-10
Integration weight cutoff        WCut        ... 1.0000e-14
Angular grids for H and He will be reduced by one unit
Partially contracted basis set               ... off
Rotationally invariant grid construction     ... off

Total number of grid points                  ...    31378
Total number of batches                      ...      510
Average number of points per batch           ...       61
Average number of grid points per atom       ...      981

CP-SCF GRIDX
------------

General Integration Accuracy     IntAcc      ... 3.067
Radial Grid Type                 RadialGrid  ... OptM3 with GC (2021)
Angular Grid (max. ang.)         AngularGrid ... 1 (Lebedev-50)
Angular grid pruning method      GridPruning ... 4 (adaptive)
Weight generation scheme         WeightScheme... Becke
Basis function cutoff            BFCut       ... 1.0000e-10
Integration weight cutoff        WCut        ... 1.0000e-14
Angular grids for H and He will be reduced by one unit
Partially contracted basis set               ... on
Rotationally invariant grid construction     ... off

Total number of grid points                  ...    13945
Total number of batches                      ...      236
Average number of points per batch           ...       59
Average number of grid points per atom       ...      436

Memory available               ... 868.7 MB
Memory needed per perturbation ...  23.5 MB
Perturbations treated per batch... 3
Number of batches              ... 1
     CP-SCF ITERATION   0:   4.2226e-02 (   2.9 sec   0/  3 done)
     CP-SCF ITERATION   1:   1.0573e-03 (   2.9 sec   1/  3 done)
     CP-SCF ITERATION   2:   2.3027e-04 (   2.4 sec   3/  3 done)
                    *** THE CP-SCF HAS CONVERGED ***

Forming final perturbed densities           ... done
Transforming perturbed density to AO basis  ... done

 Raw HFC matrix (all values in MHz): 
 -----------------------------------
                -0.2332              -0.0317               0.2018
                -0.0317              -0.2724              -0.0887
                 0.2012              -0.0893               0.4060

 A(FC)          -0.0328              -0.0328              -0.0328
 A(SD)          -0.2497              -0.2633               0.5131
 A(ORB+DIA)      0.0014               0.0016              -0.0041    A(PC) =  -0.0004
 A(ORB)          0.0015               0.0016              -0.0042    A(PC) =  -0.0004
 A(DIA)         -0.0001              -0.0000               0.0001    A(PC) =  -0.0000
             ----------           ----------           ----------
 A(Tot)         -0.2811              -0.2946               0.4761    A(iso)=   -0.0332
 Orientation: 
  X           0.4283050           -0.8602578           -0.2766069
  Y          -0.8715530           -0.4741092            0.1249630
  Z          -0.2386423            0.1875553           -0.9528236

Notes:  (1) The A matrix conforms to the "SAI" spin Hamiltonian convention.
        (2) Tensor is right-handed.

 Raw EFG matrix (all values in a.u.**-3):
 -----------------------------------
            -0.0183      -0.1146       0.1612
            -0.1146      -0.0468      -0.1475
             0.1612      -0.1475       0.0651

 V(El)       0.5797       0.7980      -1.3776
 V(Nuc)     -0.7228      -0.9476       1.6704
         ----------   ----------   ----------
 V(Tot)     -0.1431      -0.1496       0.2927 
 Orientation: 
  X      -0.7764467    0.3304747   -0.5365790
  Y       0.0393771    0.8752441    0.4820759
  Z       0.6289515    0.3531773   -0.6925935

Note: Tensor is right-handed


 Quadrupole tensor eigenvalues (in MHz;Q= 0.0029 I=  1.0)
  e**2qQ            =     0.196578 MHz 
  e**2qQ/(4I*(2I-1))=     0.049145 MHz 
  eta               =     0.022118
  NOTE: the diagonal representation of the SH term I*Q*I = e**2qQ/(4I(2I-1))*[-(1-eta),-(1+eta),2]

 RHO(0)=      0.441751761 a.u.**-3

 -----------------------------------------------------------
 Nucleus   0V : A:ISTP=   51 I=  3.5 P=140.5173 MHz/au**3
                Q:ISTP=   51 I=  3.5 Q= -0.0430 barn     
 -----------------------------------------------------------
 Solving for nuclear perturbation:
Forming RHS of the CP-SCF equations         ... 
Calc. nucleus orbit integrals (SHARK)       ... done

------------------------------------------------------------------------------
                           ORCA CP-SCF CALCULATION
------------------------------------------------------------------------------

Input orbitals are from        ... input_57.gbw
Input Perturbation             ... input_57.pin.tmp
Wavefunction output            ... input_57.pout.tmp
Perturbation mode              ... Imaginary perturbation
Solver                         ... POPLE
Max. number of iterations      ... 64
Convergence tolerance          ... 1.000e-03
Integral handling              ... Direct
DFT GridXC                     ... 1
COSX GridX                     ... 1
COSX IntAccX                   ... 3.067
COSX Algorithm                 ... Auto
Number of perturbations        ... 3
Number of operators            ... 2
Orbital ranges used for CP-SCF:
 Operator 0:  Orbitals   0...116  to 117...516
 Operator 1:  Orbitals   0...115  to 116...516
Variables per perturbation     ... 93316
DFT calculation                         ... on
XC functional terms                     ... off
Hybrid DFT                              ... on
   Exchange mixing (SCF)                ...  0.200
   Exchange mixing (CP-SCF)             ...  0.200
   GGA exch. scaling(SCF)               ...  0.720
   GGA exch. scaling (CP-SCF)           ...  0.720
   GGA corr. scaling (SCF)              ...  0.810
   GGA corr. scaling (CP-SCF)           ...  0.810

CP-SCF GRID
-----------

General Integration Accuracy     IntAcc      ... 3.467
Radial Grid Type                 RadialGrid  ... OptM3 with GC (2021)
Angular Grid (max. ang.)         AngularGrid ... 1 (Lebedev-50)
Angular grid pruning method      GridPruning ... 4 (adaptive)
Weight generation scheme         WeightScheme... Becke
Basis function cutoff            BFCut       ... 1.0000e-10
Integration weight cutoff        WCut        ... 1.0000e-14
Angular grids for H and He will be reduced by one unit
Partially contracted basis set               ... off
Rotationally invariant grid construction     ... off

Total number of grid points                  ...    31378
Total number of batches                      ...      510
Average number of points per batch           ...       61
Average number of grid points per atom       ...      981

CP-SCF GRIDX
------------

General Integration Accuracy     IntAcc      ... 3.067
Radial Grid Type                 RadialGrid  ... OptM3 with GC (2021)
Angular Grid (max. ang.)         AngularGrid ... 1 (Lebedev-50)
Angular grid pruning method      GridPruning ... 4 (adaptive)
Weight generation scheme         WeightScheme... Becke
Basis function cutoff            BFCut       ... 1.0000e-10
Integration weight cutoff        WCut        ... 1.0000e-14
Angular grids for H and He will be reduced by one unit
Partially contracted basis set               ... on
Rotationally invariant grid construction     ... off

Total number of grid points                  ...    13945
Total number of batches                      ...      236
Average number of points per batch           ...       59
Average number of grid points per atom       ...      436

Memory available               ... 867.2 MB
Memory needed per perturbation ...  23.5 MB
Perturbations treated per batch... 3
Number of batches              ... 1
     CP-SCF ITERATION   0:   1.0208e+01 (   3.1 sec   0/  3 done)
     CP-SCF ITERATION   1:   1.8592e+00 (   2.9 sec   0/  3 done)
     CP-SCF ITERATION   2:   3.1206e-01 (   2.9 sec   0/  3 done)
     CP-SCF ITERATION   3:   4.0476e-02 (   2.9 sec   0/  3 done)
     CP-SCF ITERATION   4:   9.8159e-03 (   2.9 sec   0/  3 done)
     CP-SCF ITERATION   5:   2.1334e-03 (   3.0 sec   0/  3 done)
     CP-SCF ITERATION   6:   3.1789e-04 (   3.0 sec   3/  3 done)
                    *** THE CP-SCF HAS CONVERGED ***

Forming final perturbed densities           ... done
Transforming perturbed density to AO basis  ... done

 Raw HFC matrix (all values in MHz): 
 -----------------------------------
              -197.7157             -96.9177             110.5177
               -96.9064            -145.4935              83.1181
               110.5648              83.1435            -186.3854

 A(FC)        -165.4274            -165.4274            -165.4274
 A(SD)         100.7959              88.6096            -189.4055
 A(ORB+DIA)     -6.5274              -7.6619             -19.1230    A(PC) = -11.1041
 A(ORB)         -6.5270              -7.6623             -19.1229    A(PC) = -11.1041
 A(DIA)         -0.0004               0.0005              -0.0001    A(PC) =  -0.0000
             ----------           ----------           ----------
 A(Tot)        -71.1589             -84.4798            -373.9559    A(iso)= -176.5315
 Orientation: 
  X           0.6402678            0.4242507           -0.6403659
  Y          -0.7656621            0.4195383           -0.4875953
  Z           0.0617954            0.8024955            0.5934495

Notes:  (1) The A matrix conforms to the "SAI" spin Hamiltonian convention.
        (2) Tensor is right-handed.

 Raw EFG matrix (all values in a.u.**-3):
 -----------------------------------
             0.0461       0.1029      -0.1887
             0.1029      -0.0242      -0.1521
            -0.1887      -0.1521      -0.0219

 V(El)       0.1408      -0.4686       0.3279
 V(Nuc)     -0.2376       0.2642      -0.0266
         ----------   ----------   ----------
 V(Tot)     -0.0968      -0.2044       0.3012 
 Orientation: 
  X       0.6429370    0.4232405   -0.6383569
  Y      -0.7626136    0.4310972   -0.4822611
  Z       0.0710814    0.7968831    0.5999373

Note: Tensor is right-handed


 Quadrupole tensor eigenvalues (in MHz;Q=-0.0430 I=  3.5)
  e**2qQ            =    -3.043544 MHz 
  e**2qQ/(4I*(2I-1))=    -0.036233 MHz 
  eta               =     0.357067
  NOTE: the diagonal representation of the SH term I*Q*I = e**2qQ/(4I(2I-1))*[-(1-eta),-(1+eta),2]

 RHO(0)=   8115.216346884 a.u.**-3


--------------------------------------------------------------------------------
----------------------------------------------------------------------------
                           ORCA EULER ANGLE PROGRAM
----------------------------------------------------------------------------

Only g-tensor available        -->  using g-tensor as reference tensor

Reference tensor               ...  g

g-tensor ordering              ...  |g_min> --> |gx>
                                    |g_mid> --> |gy>
                                    |g_max> --> |gz>

A- and EFG-tensor ordering     ...  the axes |Ax>, |Qx>, |Ay>, etc. are assigned
                                    such that the Euler rotation is minimal. You
                                    can find the respective eigenvalues as Ax,
                                    EFGx, Ay, etc. in the tables below.
                                    The relation of |Ax>, |Ay>,  etc. to Amin, Amid, etc.
                                    (as printed in the ORCA EPR/NMR CALCULATION Output)
                                    is obtained in the detailed printout.

Euler rotation around          ...  z - y - z
   First rotation              -->  by alpha around z
   Second rotation             -->  by beta around y'
   Third rotation              -->  by gamma around z''
   Positive / Negative angle   -->  clockwise / counterclockwise rotation

Plot EFG-tensors                    (-)
Plot HFC-tensors                    (-)
Detailed Printout                   (-)

-------------------------------------------------------------------------
          Euler rotation of hyperfine tensor to g-tensor
-------------------------------------------------------------------------

-------------------------------------------------------------------
 Atom  |   Alpha    Beta    Gamma   |   Ax       Ay       Az 
       |          [degrees]         |           [MHz]         
-------------------------------------------------------------------
 19H      -38.5     24.0     -4.3      -0.49     0.90    -0.53
 20H     -116.8     22.0     90.4      -0.27     0.49    -0.26
 21H      -55.6      0.6     22.8      -0.12     0.46    -0.12
 22H     -169.1      3.0    150.3      -0.22     0.45    -0.22
 23H       64.3     20.8    -90.7      -0.27     0.50    -0.26
 24H      143.8     24.1    173.8      -0.50     0.90    -0.53
 26H      107.0     19.1    -80.0      -0.23     0.54    -0.21
 27H       42.0     18.3      0.1      -0.44     0.87    -0.47
 28H      178.2     31.3   -159.4      -0.22     0.45    -0.22
 29H        6.8     17.6     26.5      -0.09     0.49    -0.09
 30H     -142.7     28.4   -173.5      -0.54     0.94    -0.58
 31H      -62.4     22.7     89.3      -0.29     0.48    -0.28
  0V     -101.4      0.7    101.7    -373.96   -84.48   -71.16
-------------------------------------------------------------------


-------------------------------------------------------------------------------
    Euler rotation of Electric Field Gradient (EFG) tensor to g-tensor
-------------------------------------------------------------------------------

-------------------------------------------------------------------
 Atom  |   Alpha    Beta    Gamma  |   EFGx     EFGy     EFGz
       |          [degrees]        |         [a.u.**-3]       
-------------------------------------------------------------------
 19H        0.3     41.4     33.9     -0.15     0.29    -0.14
 20H      146.4     38.3   -115.9     -0.14    -0.15     0.29
 21H      -85.8      0.9    104.9      0.28    -0.14    -0.14
 22H      -76.1      0.7    111.6     -0.15     0.29    -0.14
 23H      -35.1     39.3     65.0     -0.14    -0.15     0.29
 24H     -177.8     41.4   -147.7     -0.15     0.29    -0.14
 26H     -149.0     37.2    113.0     -0.14    -0.15     0.29
 27H      179.2     44.3    141.9     -0.13     0.28    -0.14
 28H     -179.9      3.6    144.8     -0.15     0.29    -0.14
 29H       68.9     22.7    -89.5      0.25    -0.13    -0.12
 30H       14.9     10.3    -43.5     -0.14     0.27    -0.14
 31H       41.5     40.3    -61.9     -0.14    -0.15     0.29
  0V      -90.7      0.1     90.6      0.30    -0.20    -0.10
-------------------------------------------------------------------


Maximum memory used throughout the entire EPRNMR-calculation: 221.3 MB

Timings for individual modules:

Sum of individual times         ...     1642.179 sec (=  27.370 min)
GTO integral calculation        ...        1.347 sec (=   0.022 min)   0.1 %
Spin-Orbit-Coupling Matrices    ...        6.716 sec (=   0.112 min)   0.4 %
SCF iterations                  ...      111.550 sec (=   1.859 min)   6.8 %
EPR/NMR calculation             ...     1522.567 sec (=  25.376 min)  92.7 %
                             ****ORCA TERMINATED NORMALLY****
TOTAL RUN TIME: 0 days 0 hours 27 minutes 23 seconds 453 msec
