
                                 *****************
                                 * O   R   C   A *
                                 *****************

                                            #,                                       
                                            ###                                      
                                            ####                                     
                                            #####                                    
                                            ######                                   
                                           ########,                                 
                                     ,,################,,,,,                         
                               ,,#################################,,                 
                          ,,##########################################,,             
                       ,#########################################, ''#####,          
                    ,#############################################,,   '####,        
                  ,##################################################,,,,####,       
                ,###########''''           ''''###############################       
              ,#####''   ,,,,##########,,,,          '''####'''          '####       
            ,##' ,,,,###########################,,,                        '##       
           ' ,,###''''                  '''############,,,                           
         ,,##''                                '''############,,,,        ,,,,,,###''
      ,#''                                            '''#######################'''  
     '                                                          ''''####''''         
             ,#######,   #######,   ,#######,      ##                                
            ,#'     '#,  ##    ##  ,#'     '#,    #''#        ######   ,####,        
            ##       ##  ##   ,#'  ##            #'  '#       #        #'  '#        
            ##       ##  #######   ##           ,######,      #####,   #    #        
            '#,     ,#'  ##    ##  '#,     ,#' ,#      #,         ##   #,  ,#        
             '#######'   ##     ##  '#######'  #'      '#     #####' # '####'        



                  #######################################################
                  #                        -***-                        #
                  #          Department of theory and spectroscopy      #
                  #    Directorship and core code : Frank Neese         #
                  #        Max Planck Institute fuer Kohlenforschung    #
                  #                Kaiser Wilhelm Platz 1               #
                  #                 D-45470 Muelheim/Ruhr               #
                  #                      Germany                        #
                  #                                                     #
                  #                  All rights reserved                #
                  #                        -***-                        #
                  #######################################################


                         Program Version 5.0.4 -  RELEASE  -


 With contributions from (in alphabetic order):
   Daniel Aravena         : Magnetic Suceptibility
   Michael Atanasov       : Ab Initio Ligand Field Theory (pilot matlab implementation)
   Alexander A. Auer      : GIAO ZORA, VPT2 properties, NMR spectrum
   Ute Becker             : Parallelization
   Giovanni Bistoni       : ED, misc. LED, open-shell LED, HFLD
   Martin Brehm           : Molecular dynamics
   Dmytro Bykov           : SCF Hessian
   Vijay G. Chilkuri      : MRCI spin determinant printing, contributions to CSF-ICE
   Dipayan Datta          : RHF DLPNO-CCSD density
   Achintya Kumar Dutta   : EOM-CC, STEOM-CC
   Dmitry Ganyushin       : Spin-Orbit,Spin-Spin,Magnetic field MRCI
   Miquel Garcia          : C-PCM and meta-GGA Hessian, CC/C-PCM, Gaussian charge scheme
   Yang Guo               : DLPNO-NEVPT2, F12-NEVPT2, CIM, IAO-localization
   Andreas Hansen         : Spin unrestricted coupled pair/coupled cluster methods
   Benjamin Helmich-Paris : MC-RPA, TRAH-SCF, COSX integrals
   Lee Huntington         : MR-EOM, pCC
   Robert Izsak           : Overlap fitted RIJCOSX, COSX-SCS-MP3, EOM
   Marcus Kettner         : VPT2
   Christian Kollmar      : KDIIS, OOCD, Brueckner-CCSD(T), CCSD density, CASPT2, CASPT2-K
   Simone Kossmann        : Meta GGA functionals, TD-DFT gradient, OOMP2, MP2 Hessian
   Martin Krupicka        : Initial AUTO-CI
   Lucas Lang             : DCDCAS
   Marvin Lechner         : AUTO-CI (C++ implementation), FIC-MRCC
   Dagmar Lenk            : GEPOL surface, SMD
   Dimitrios Liakos       : Extrapolation schemes; Compound Job, initial MDCI parallelization
   Dimitrios Manganas     : Further ROCIS development; embedding schemes
   Dimitrios Pantazis     : SARC Basis sets
   Anastasios Papadopoulos: AUTO-CI, single reference methods and gradients
   Taras Petrenko         : DFT Hessian,TD-DFT gradient, ASA, ECA, R-Raman, ABS, FL, XAS/XES, NRVS
   Peter Pinski           : DLPNO-MP2, DLPNO-MP2 Gradient
   Christoph Reimann      : Effective Core Potentials
   Marius Retegan         : Local ZFS, SOC
   Christoph Riplinger    : Optimizer, TS searches, QM/MM, DLPNO-CCSD(T), (RO)-DLPNO pert. Triples
   Tobias Risthaus        : Range-separated hybrids, TD-DFT gradient, RPA, STAB
   Michael Roemelt        : Original ROCIS implementation
   Masaaki Saitow         : Open-shell DLPNO-CCSD energy and density
   Barbara Sandhoefer     : DKH picture change effects
   Avijit Sen             : IP-ROCIS
   Kantharuban Sivalingam : CASSCF convergence, NEVPT2, FIC-MRCI
   Bernardo de Souza      : ESD, SOC TD-DFT
   Georgi Stoychev        : AutoAux, RI-MP2 NMR, DLPNO-MP2 response
   Willem Van den Heuvel  : Paramagnetic NMR
   Boris Wezisla          : Elementary symmetry handling
   Frank Wennmohs         : Technical directorship


 We gratefully acknowledge several colleagues who have allowed us to
 interface, adapt or use parts of their codes:
   Stefan Grimme, W. Hujo, H. Kruse, P. Pracht,  : VdW corrections, initial TS optimization,
                  C. Bannwarth, S. Ehlert          DFT functionals, gCP, sTDA/sTD-DF
   Ed Valeev, F. Pavosevic, A. Kumar             : LibInt (2-el integral package), F12 methods
   Garnet Chan, S. Sharma, J. Yang, R. Olivares  : DMRG
   Ulf Ekstrom                                   : XCFun DFT Library
   Mihaly Kallay                                 : mrcc  (arbitrary order and MRCC methods)
   Jiri Pittner, Ondrej Demel                    : Mk-CCSD
   Frank Weinhold                                : gennbo (NPA and NBO analysis)
   Christopher J. Cramer and Donald G. Truhlar   : smd solvation model
   Lars Goerigk                                  : TD-DFT with DH, B97 family of functionals
   V. Asgeirsson, H. Jonsson                     : NEB implementation
   FAccTs GmbH                                   : IRC, NEB, NEB-TS, DLPNO-Multilevel, CI-OPT
                                                   MM, QMMM, 2- and 3-layer-ONIOM, Crystal-QMMM,
                                                   LR-CPCM, SF, NACMEs, symmetry and pop. for TD-DFT,
                                                   nearIR, NL-DFT gradient (VV10), updates on ESD,
                                                   ML-optimized integration grids
   S Lehtola, MJT Oliveira, MAL Marques          : LibXC Library
   Liviu Ungur et al                             : ANISO software


 Your calculation uses the libint2 library for the computation of 2-el integrals
 For citations please refer to: http://libint.valeyev.net

 Your ORCA version has been built with support for libXC version: 5.1.0
 For citations please refer to: https://tddft.org/programs/libxc/

 This ORCA versions uses:
   CBLAS   interface :  Fast vector & matrix operations
   LAPACKE interface :  Fast linear algebra routines
   SCALAPACK package :  Parallel linear algebra routines
   Shared memory     :  Shared parallel matrices
   BLAS/LAPACK       :  OpenBLAS 0.3.15  USE64BITINT DYNAMIC_ARCH NO_AFFINITY Prescott SINGLE_THREADED
        Core in use  :  Prescott
   Copyright (c) 2011-2014, The OpenBLAS Project


================================================================================

----- Orbital basis set information -----
Your calculation utilizes the basis: TZVP 

The basis set includes element-specific modifications.

Your calculation utilizes the basis: CP(PPP) 

----- AuxJ basis set information -----
Your calculation utilizes the auxiliary basis: def2/J
   F. Weigend, Phys. Chem. Chem. Phys. 8, 1057 (2006).

================================================================================
                                        WARNINGS
                       Please study these warnings very carefully!
================================================================================


WARNING: your system is open-shell and RHF/RKS was chosen
  ===> : WILL SWITCH to UHF/UKS


INFO   : the flag for use of the SHARK integral package has been found!

================================================================================
                                       INPUT FILE
================================================================================
NAME = input_21.inp
|  1> ! nofrozencore ReducedPop printbasis
|  2> ! B3LYP TZVP
|  3> 
|  4> %basis
|  5> newgto V "CP(PPP)" end
|  6> end
|  7> 
|  8> %pal
|  9> nprocs 8
| 10> end
| 11> 
| 12> % sym SymThresh 1e-2 end
| 13> * xyz -2 2 
| 14> V 0.6732968682905621 0.8858416064004891 0.07862392455176716
| 15> S -0.23704474399998818 0.4239304827396431 2.319381850541457
| 16> S 2.032183985506583 -1.110114532994551 0.41204910761324187
| 17> S -1.6065250303764518 1.6914142880076544 -0.3783044637385339
| 18> S 0.6996956489965225 0.16536506295877723 -2.2513568573044958
| 19> O 1.633663717308796 2.155671854915733 0.1991527339605641
| 20> C 2.5205630535943486 -1.605195866132083 -1.2133973373370335
| 21> C 1.9607057911226216 -1.0709842302619164 -2.330214990967465
| 22> C -1.7124412229852548 1.4003185275938048 2.359954093685571
| 23> C -2.2803603688853165 1.9259192653849466 1.2416689844815039
| 24> S 3.8656244975873295 -2.8082468781892613 -1.2519707399963362
| 25> S 2.48185291257865 -1.4963846502776939 -4.005192258301114
| 26> S -3.867188565898724 2.7853388358921163 1.2948602100027313
| 27> S -2.505368034352742 1.5259395623794847 3.977628465554014
| 28> C 1.9368742552537856 -3.2555940965910772 -4.143045129276462
| 29> C -5.07464283287358 1.4601513249231381 1.7412715056607384
| 30> C 3.034004104842881 -4.294987107834885 -1.9643398299952266
| 31> C -4.025812964611789 0.49051951268797045 3.8080776453130514
| 32> C 2.80630823678837 -4.33654017745873 -3.4829590749443144
| 33> H 2.0917195508548616 -4.421032569329617 -1.4182550099679905
| 34> H 3.690879563294995 -5.1338033541723584 -1.6945861717723267
| 35> H 2.329245656974518 -5.311118457527076 -3.7077533758738004
| 36> H 3.7889659542804672 -4.3464797950037335 -3.982462667366111
| 37> H 1.910716628393944 -3.4520427194829693 -5.224043813330675
| 38> H 0.9058187594328789 -3.295341361455343 -3.7724246758266924
| 39> C -5.2259147672196855 1.244876408851896 3.2440105142938767
| 40> H -4.231042602084068 0.11927528628748502 4.821269484313101
| 41> H -3.7715804671880404 -0.3703991951691702 3.1772676631422905
| 42> H -5.328384414498086 2.2178729898662213 3.752357574572652
| 43> H -6.151438336272726 0.6683632394616816 3.4433949317666883
| 44> H -4.752040126873532 0.5371528779767072 1.2436226426871326
| 45> H -6.024019184428311 1.7756624440783346 1.2879383936094992
| 46> * 
| 47> 
| 48> % eprnmr
| 49> gtensor true
| 50> Nuclei = all H {aiso,adip,aorb,fgrad,rho}
| 51> Nuclei = all V {aiso,adip,aorb,fgrad,rho}
| 52> end
| 53> 
| 54>                          ****END OF INPUT****
================================================================================

------------------------------------------------------------------------------
                            SYMMETRY HANDLING SETUP
------------------------------------------------------------------------------

------------------
SYMMETRY DETECTION
------------------
The point group will now be determined using a tolerance of 1.0000e-02.
Splitting atom subsets according to nuclear charge, mass and basis set.
Splitting atom subsets according to distance from the molecule's center.
Identifying relative distance patterns of the atoms.
Splitting atom subsets according to atoms' relative distance patterns.
Bring atoms of each subset into input order.
The molecule is neither linear nor planar.
There is at least one atom subset not centered around the molecule's center.
The molecule does not have a center of inversion.
Analyzing the first atom subset for its symmetry.
The subset is an off-center atom pair.
Testing point group C2v.
Test failed.
Testing point group C2.
Test failed.
Testing point group Cs.
Test failed.
Testing point group Cs.
Test failed.
No testing is needed for point group C1.
This point group has been found:    C1
Largest non-degenerate subgroup:    C1


Mass-centered symmetry-perfected Cartesians (point group C1):

Atom          Symmetry-perfected Cartesians (x, y, z; au)
  0       1.273801868009    1.675702220835    0.148663346245
  1      -0.446494467532    0.802816698904    4.383082158779
  2       3.841726366461   -2.096108257940    0.778745628384
  3      -3.034437154588    3.198013970041   -0.714806170438
  4       1.323688333813    0.314198867816   -4.254362228763
  5       3.088632200751    4.075333627098    0.376429787275
  6       4.764629054687   -3.031676391587   -2.292902997928
  7       3.706652154529   -2.022162702238   -4.403382504818
  8      -3.234589751766    2.647922704113    4.459752586960
  9      -4.307801403727    3.641164154326    2.346499990922
 10       7.306426817130   -5.305113329512   -2.365796165008
 11       4.691477489562   -2.826052993323   -7.568630820622
 12      -7.306472117667    5.265231776716    2.447016839885
 13      -4.733004269494    2.885312056518    7.516714123655
 14       3.661617078386   -6.150477059063   -7.829134993541
 15      -9.588230001484    2.760990304892    3.290611931768
 16       5.734892027459   -8.114645195825   -3.711978651376
 17      -7.606228789392    0.928651729030    7.196309507618
 18       5.304609195011   -8.193169117438   -6.581753126032
 19       3.954232280198   -8.352836598474   -2.680027895633
 20       6.976206748028   -9.699778178087   -3.202218113712
 21       4.403091570421  -10.034855162835   -7.006552791255
 22       7.161563164455   -8.211952272474   -7.525678118619
 23       3.612186327307   -6.521711155714   -9.871926457532
 24       1.713204562410   -6.225588504229   -7.128763836891
 25      -9.874092529147    2.354179670015    6.130377108845
 26      -7.994056598779    0.227101812334    9.110964604452
 27      -7.125798994919   -0.698248852389    6.004251398771
 28     -10.067732099542    4.192876737373    7.091013833756
 29     -11.623078605146    1.264727667268    6.507159053240
 30      -8.978599237082    1.016776018129    2.350191869890
 31     -11.382291303944    3.357219912302    2.433936502553


------------------
SYMMETRY REDUCTION
------------------
ORCA supports only abelian point groups.
It is now checked, if the determined point group is supported:
Point Group ( C1    ) is          ... supported

The point group is C1 - hence turning off symmetry
If this is a round-off problem, please increase the symmetry
        detection tolerance (%method SymThresh)

Storing the symmetry object:
Symmetry file                     ... input_21.sym.tmp
Writing symmetry information      ... done

                       ****************************
                       * Single Point Calculation *
                       ****************************

---------------------------------
CARTESIAN COORDINATES (ANGSTROEM)
---------------------------------
  V      0.674067    0.886743    0.078669
  S     -0.236275    0.424832    2.319427
  S      2.032954   -1.109213    0.412094
  S     -1.605755    1.692316   -0.378259
  S      0.700466    0.166267   -2.251312
  O      1.634434    2.156574    0.199198
  C      2.521333   -1.604294   -1.213352
  C      1.961476   -1.070082   -2.330170
  C     -1.711671    1.401220    2.359999
  C     -2.279590    1.926821    1.241714
  S      3.866395   -2.807345   -1.251925
  S      2.482623   -1.495483   -4.005147
  S     -3.866419    2.786241    1.294906
  S     -2.504598    1.526841    3.977674
  C      1.937644   -3.254692   -4.143000
  C     -5.073873    1.461053    1.741317
  C      3.034774   -4.294085   -1.964295
  C     -4.025043    0.491421    3.808123
  C      2.807078   -4.335638   -3.482914
  H      2.092490   -4.420131   -1.418210
  H      3.691650   -5.132902   -1.694541
  H      2.330016   -5.310217   -3.707708
  H      3.789736   -4.345578   -3.982417
  H      1.911487   -3.451141   -5.223998
  H      0.906589   -3.294440   -3.772379
  C     -5.225145    1.245778    3.244056
  H     -4.230273    0.120177    4.821315
  H     -3.770810   -0.369497    3.177313
  H     -5.327614    2.218775    3.752403
  H     -6.150668    0.669265    3.443440
  H     -4.751270    0.538055    1.243668
  H     -6.023249    1.776564    1.287984

----------------------------
CARTESIAN COORDINATES (A.U.)
----------------------------
  NO LB      ZA    FRAG     MASS         X           Y           Z
   0 V    23.0000    0    50.940    1.273802    1.675702    0.148663
   1 S    16.0000    0    32.060   -0.446494    0.802817    4.383082
   2 S    16.0000    0    32.060    3.841726   -2.096108    0.778746
   3 S    16.0000    0    32.060   -3.034437    3.198014   -0.714806
   4 S    16.0000    0    32.060    1.323688    0.314199   -4.254362
   5 O     8.0000    0    15.999    3.088632    4.075334    0.376430
   6 C     6.0000    0    12.011    4.764629   -3.031676   -2.292903
   7 C     6.0000    0    12.011    3.706652   -2.022163   -4.403383
   8 C     6.0000    0    12.011   -3.234590    2.647923    4.459753
   9 C     6.0000    0    12.011   -4.307801    3.641164    2.346500
  10 S    16.0000    0    32.060    7.306427   -5.305113   -2.365796
  11 S    16.0000    0    32.060    4.691477   -2.826053   -7.568631
  12 S    16.0000    0    32.060   -7.306472    5.265232    2.447017
  13 S    16.0000    0    32.060   -4.733004    2.885312    7.516714
  14 C     6.0000    0    12.011    3.661617   -6.150477   -7.829135
  15 C     6.0000    0    12.011   -9.588230    2.760990    3.290612
  16 C     6.0000    0    12.011    5.734892   -8.114645   -3.711979
  17 C     6.0000    0    12.011   -7.606229    0.928652    7.196310
  18 C     6.0000    0    12.011    5.304609   -8.193169   -6.581753
  19 H     1.0000    0     1.008    3.954232   -8.352837   -2.680028
  20 H     1.0000    0     1.008    6.976207   -9.699778   -3.202218
  21 H     1.0000    0     1.008    4.403092  -10.034855   -7.006553
  22 H     1.0000    0     1.008    7.161563   -8.211952   -7.525678
  23 H     1.0000    0     1.008    3.612186   -6.521711   -9.871926
  24 H     1.0000    0     1.008    1.713205   -6.225589   -7.128764
  25 C     6.0000    0    12.011   -9.874093    2.354180    6.130377
  26 H     1.0000    0     1.008   -7.994057    0.227102    9.110965
  27 H     1.0000    0     1.008   -7.125799   -0.698249    6.004251
  28 H     1.0000    0     1.008  -10.067732    4.192877    7.091014
  29 H     1.0000    0     1.008  -11.623079    1.264728    6.507159
  30 H     1.0000    0     1.008   -8.978599    1.016776    2.350192
  31 H     1.0000    0     1.008  -11.382291    3.357220    2.433937

--------------------------------
INTERNAL COORDINATES (ANGSTROEM)
--------------------------------
 V      0   0   0     0.000000000000     0.00000000     0.00000000
 S      1   0   0     2.462332191260     0.00000000     0.00000000
 S      1   2   0     2.437537171086    85.87225982     0.00000000
 S      1   2   3     2.460755734936    83.56159942   145.62497359
 S      1   2   3     2.438973921364   144.87857213    72.12578448
 O      1   2   3     1.596652917398   107.63013107   252.62977591
 C      3   1   2     1.767963740004   104.92393907   159.85294930
 C      7   3   1     1.358714060317   122.12600852   348.20883026
 C      2   1   3     1.769682031115   103.03763276   196.91437045
 C      9   2   1     1.359908040021   122.85800429    15.43944790
 S      7   3   1     1.804995826344   114.33932384   165.44513364
 S      8   7   3     1.805023181468   123.44373827   177.21653325
 S     10   9   2     1.805396087145   121.79042463   174.13612354
 S      9   2   1     1.805930216250   115.14872294   189.96833825
 C     12   8   7     1.846841364864   102.03799488    67.93883492
 C     13  10   9     1.847525586008   103.89276628   293.53512422
 C     11   7   3     1.846471962544   102.08048526   114.50266406
 C     14   9   2     1.847321018637   103.89682127   251.91537736
 C     17  11   7     1.536156397329   118.02998946    78.66492401
 H     17  11   7     1.096355904673   106.70815790   312.65904171
 H     17  11   7     1.099029162107   104.51644487   198.75190330
 H     19  17  11     1.108117325363   106.74715972   178.31604608
 H     19  17  11     1.102369640631   108.42488235    63.93807018
 H     15  12   8     1.099015212727   104.51954817   161.09607762
 H     15  12   8     1.096364355970   106.66706711    47.20816483
 C     16  13  10     1.525598576192   113.82994271    86.90090877
 H     18  14   9     1.098407566593   104.98462105   151.32193072
 H     18  14   9     1.097149223165   107.56978211    36.50850562
 H     26  16  13     1.102560251856   109.80626333    46.00960465
 H     26  16  13     1.108474382782   109.47271774   163.64215521
 H     16  13  10     1.097111220343   107.55777534   323.57700078
 H     16  13  10     1.098350414797   105.01872670   208.74008787

---------------------------
INTERNAL COORDINATES (A.U.)
---------------------------
 V      0   0   0     0.000000000000     0.00000000     0.00000000
 S      1   0   0     4.653133492219     0.00000000     0.00000000
 S      1   2   0     4.606277694605    85.87225982     0.00000000
 S      1   2   3     4.650154421505    83.56159942   145.62497359
 S      1   2   3     4.608992759153   144.87857213    72.12578448
 O      1   2   3     3.017236744808   107.63013107   252.62977591
 C      3   1   2     3.340967283311   104.92393907   159.85294930
 C      7   3   1     2.567597468307   122.12600852   348.20883026
 C      2   1   3     3.344214382928   103.03763276   196.91437045
 C      9   2   1     2.569853762957   122.85800429    15.43944790
 S      7   3   1     3.410947784662   114.33932384   165.44513364
 S      8   7   3     3.410999478353   123.44373827   177.21653325
 S     10   9   2     3.411704167958   121.79042463   174.13612354
 S      9   2   1     3.412713525686   115.14872294   189.96833825
 C     12   8   7     3.490024392391   102.03799488    67.93883492
 C     13  10   9     3.491317382968   103.89276628   293.53512422
 C     11   7   3     3.489326323172   102.08048526   114.50266406
 C     14   9   2     3.490930806660   103.89682127   251.91537736
 C     17  11   7     2.902914889822   118.02998946    78.66492401
 H     17  11   7     2.071812405140   106.70815790   312.65904171
 H     17  11   7     2.076864129575   104.51644487   198.75190330
 H     19  17  11     2.094038269190   106.74715972   178.31604608
 H     19  17  11     2.083176719143   108.42488235    63.93807018
 H     15  12   8     2.076837769068   104.51954817   161.09607762
 H     15  12   8     2.071828375777   106.66706711    47.20816483
 C     16  13  10     2.882963499302   113.82994271    86.90090877
 H     18  14   9     2.075689484288   104.98462105   151.32193072
 H     18  14   9     2.073311559826   107.56978211    36.50850562
 H     26  16  13     2.083536922155   109.80626333    46.00960465
 H     26  16  13     2.094713009925   109.47271774   163.64215521
 H     16  13  10     2.073239744901   107.55777534   323.57700078
 H     16  13  10     2.075581483044   105.01872670   208.74008787

---------------------
BASIS SET INFORMATION
---------------------
There are 5 groups of distinct atoms

 Group   1 Type V   : 17s11p5d1f contracted to 17s7p3d1f pattern {11111111111111111/3311111/311/1}
 Group   2 Type S   : 14s9p1d contracted to 5s4p1d pattern {73211/6111/1}
 Group   3 Type O   : 11s6p1d contracted to 5s3p1d pattern {62111/411/1}
 Group   4 Type C   : 11s6p1d contracted to 5s3p1d pattern {62111/411/1}
 Group   5 Type H   : 5s1p contracted to 3s1p pattern {311/1}

Atom   0V    basis set group =>   1
Atom   1S    basis set group =>   2
Atom   2S    basis set group =>   2
Atom   3S    basis set group =>   2
Atom   4S    basis set group =>   2
Atom   5O    basis set group =>   3
Atom   6C    basis set group =>   4
Atom   7C    basis set group =>   4
Atom   8C    basis set group =>   4
Atom   9C    basis set group =>   4
Atom  10S    basis set group =>   2
Atom  11S    basis set group =>   2
Atom  12S    basis set group =>   2
Atom  13S    basis set group =>   2
Atom  14C    basis set group =>   4
Atom  15C    basis set group =>   4
Atom  16C    basis set group =>   4
Atom  17C    basis set group =>   4
Atom  18C    basis set group =>   4
Atom  19H    basis set group =>   5
Atom  20H    basis set group =>   5
Atom  21H    basis set group =>   5
Atom  22H    basis set group =>   5
Atom  23H    basis set group =>   5
Atom  24H    basis set group =>   5
Atom  25C    basis set group =>   4
Atom  26H    basis set group =>   5
Atom  27H    basis set group =>   5
Atom  28H    basis set group =>   5
Atom  29H    basis set group =>   5
Atom  30H    basis set group =>   5
Atom  31H    basis set group =>   5

-------------------------
BASIS SET IN INPUT FORMAT
-------------------------

 # Basis set for element : H 
 NewGTO H 
 S 3 
   1      34.0613410000      0.0254393168
   2       5.1235746000      0.1900859340
   3       1.1646626000      0.8524411390
 S 1 
   1       0.3272304100      1.0000000000
 S 1 
   1       0.1030724100      1.0000000000
 P 1 
   1       0.8000000000      1.0000000000
  end;

 # Basis set for element : C 
 NewGTO C 
 S 6 
   1   13575.3496820000      0.0006064601
   2    2035.2333680000      0.0046978985
   3     463.2256235900      0.0243324735
   4     131.2001959800      0.0973999560
   5      42.8530158900      0.3019558443
   6      15.5841857700      0.6623361013
 S 2 
   1       6.2067138500      0.6559530795
   2       2.5764896500      0.3758563390
 S 1 
   1       0.5769633900      1.0000000000
 S 1 
   1       0.2297283100      1.0000000000
 S 1 
   1       0.0951644400      1.0000000000
 P 4 
   1      34.6972322400      0.0113272290
   2       7.9582622800      0.0761696612
   3       2.3780826900      0.3019225154
   4       0.8143320800      0.7278502776
 P 1 
   1       0.2888754700      1.0000000000
 P 1 
   1       0.1005682400      1.0000000000
 D 1 
   1       0.8000000000      1.0000000000
  end;

 # Basis set for element : O 
 NewGTO O 
 S 6 
   1   27032.3826310000      0.0005722654
   2    4052.3871392000      0.0044353333
   3     922.3272271000      0.0230201034
   4     261.2407098900      0.0928224938
   5      85.3546413500      0.2937849971
   6      31.0350352400      0.6740160462
 S 2 
   1      12.2608607300      0.6383993750
   2       4.9987076000      0.3953458663
 S 1 
   1       1.1703108200      1.0000000000
 S 1 
   1       0.4647474100      1.0000000000
 S 1 
   1       0.1850453600      1.0000000000
 P 4 
   1      63.2749548000      0.0120183316
   2      14.6270493800      0.0830054304
   3       4.4501223500      0.3199174388
   4       1.5275799600      0.7071554258
 P 1 
   1       0.5293511800      1.0000000000
 P 1 
   1       0.1747842100      1.0000000000
 D 1 
   1       1.2000000000      1.0000000000
  end;

 # Basis set for element : S 
 NewGTO S 
 S 7 
   1   60700.9281040000      0.0005238013
   2    9102.6106854000      0.0040506304
   3    2071.4166009000      0.0208270003
   4     586.0247682100      0.0814968475
   5     190.5539502100      0.2374911358
   6      67.6303842600      0.4472617145
   7      25.1273069100      0.3489191913
 S 3 
   1     112.5746301000      0.1004556993
   2      34.7955542200      0.4339117282
   3       6.5115556200     -1.2084330582
 S 2 
   1       3.2399032300      0.6749812922
   2       1.5477160900      0.3470879597
 S 1 
   1       0.4054103000      1.0000000000
 S 1 
   1       0.1455065100      1.0000000000
 P 6 
   1     564.3671602700      0.0025564845
   2     133.4262437900      0.0202874255
   3      42.4682711900      0.0927670112
   4      15.6165275800      0.2650208365
   5       6.1093988500      0.4486298663
   6       2.4404160200      0.3596369916
 P 1 
   1       0.8388220100      1.0000000000
 P 1 
   1       0.3128874700      1.0000000000
 P 1 
   1       0.1077010900      1.0000000000
 D 1 
   1       0.5500000000      1.0000000000
  end;

 # Basis set for element : V 
 NewGTO V 
 S 1 
   1  4239814.9912500000      1.0000000000
 S 1 
   1  1695925.9965000001      1.0000000000
 S 1 
   1  678370.3986000001      1.0000000000
 S 1 
   1  271348.1594400000      1.0000000000
 S 1 
   1   40672.0050780000      1.0000000000
 S 1 
   1    9257.0761385000      1.0000000000
 S 1 
   1    2622.7328773000      1.0000000000
 S 1 
   1     858.5948018500      1.0000000000
 S 1 
   1     314.1941865000      1.0000000000
 S 1 
   1     124.4786212700      1.0000000000
 S 1 
   1      50.4693993090      1.0000000000
 S 1 
   1      12.5138469110      1.0000000000
 S 1 
   1       5.3447758082      1.0000000000
 S 1 
   1       1.5755631295      1.0000000000
 S 1 
   1       0.6306903307      1.0000000000
 S 1 
   1       0.0879544416      1.0000000000
 S 1 
   1       0.0342969197      1.0000000000
 P 3 
   1    1450.0319327000     -0.0222847647
   2     343.7504988400     -0.1817959329
   3     110.8252170800     -0.8607412073
 P 3 
   1      41.8224645460     -0.2522537814
   2      17.0880737100     -0.4620379520
   3       7.2613218939     -0.3990010670
 P 1 
   1       2.9458145262      1.0000000000
 P 1 
   1       1.1650209680      1.0000000000
 P 1 
   1       0.4339937839      1.0000000000
 D 3 
   1      27.3603358640      0.0575501019
   2       7.4542765527      0.3023798347
   3       2.4632270217      0.7724212088
 D 1 
   1       0.8249954244      1.0000000000
 D 1 
   1       0.2526297057      1.0000000000
 P 1 
   1       0.1112480000      1.0000000000
 P 1 
   1       0.0363780000      1.0000000000
 F 1 
   1       1.8000000000      1.0000000000
  end;

---------------------------------
AUXILIARY/J BASIS SET INFORMATION
---------------------------------
There are 5 groups of distinct atoms

 Group   1 Type V   : 19s5p5d3f3g contracted to 8s5p5d2f3g pattern {121111111/11111/11111/21/111}
 Group   2 Type S   : 14s5p5d2f1g contracted to 8s4p3d1f1g pattern {71111111/2111/311/2/1}
 Group   3 Type O   : 12s5p4d2f1g contracted to 6s4p3d1f1g pattern {711111/2111/211/2/1}
 Group   4 Type C   : 12s5p4d2f1g contracted to 6s4p3d1f1g pattern {711111/2111/211/2/1}
 Group   5 Type H   : 5s2p1d contracted to 3s1p1d pattern {311/2/1}

Atom   0V    basis set group =>   1
Atom   1S    basis set group =>   2
Atom   2S    basis set group =>   2
Atom   3S    basis set group =>   2
Atom   4S    basis set group =>   2
Atom   5O    basis set group =>   3
Atom   6C    basis set group =>   4
Atom   7C    basis set group =>   4
Atom   8C    basis set group =>   4
Atom   9C    basis set group =>   4
Atom  10S    basis set group =>   2
Atom  11S    basis set group =>   2
Atom  12S    basis set group =>   2
Atom  13S    basis set group =>   2
Atom  14C    basis set group =>   4
Atom  15C    basis set group =>   4
Atom  16C    basis set group =>   4
Atom  17C    basis set group =>   4
Atom  18C    basis set group =>   4
Atom  19H    basis set group =>   5
Atom  20H    basis set group =>   5
Atom  21H    basis set group =>   5
Atom  22H    basis set group =>   5
Atom  23H    basis set group =>   5
Atom  24H    basis set group =>   5
Atom  25C    basis set group =>   4
Atom  26H    basis set group =>   5
Atom  27H    basis set group =>   5
Atom  28H    basis set group =>   5
Atom  29H    basis set group =>   5
Atom  30H    basis set group =>   5
Atom  31H    basis set group =>   5

-------------------------------------
AUXILIARY/J BASIS SET IN INPUT FORMAT
-------------------------------------

 # Auxiliary/J basis set for element : H 
 NewAuxJGTO H 
 S 3 
   1      15.6752927000      0.1007184237
   2       3.6063578000      0.3404257499
   3       1.2080016000      0.6491996172
 S 1 
   1       0.4726794000      1.0000000000
 S 1 
   1       0.2018100000      1.0000000000
 P 2 
   1       2.0281365000      0.5596620919
   2       0.5358730000      0.5596620919
 D 1 
   1       2.2165124000      1.0000000000
  end;

 # Auxiliary/J basis set for element : C 
 NewAuxJGTO C 
 S 7 
   1    1861.0916331000      0.0134602335
   2     642.9939764000      0.0299160374
   3     235.1105725000      0.1008649584
   4      90.7028894000      0.2370970548
   5      36.7794552000      0.3924037254
   6      15.6046273000      0.3195862154
   7       6.8907294000      0.0530104441
 S 1 
   1       3.1478850000     -1.0000000000
 S 1 
   1       1.4777287000      1.0000000000
 S 1 
   1       0.7076466000      1.0000000000
 S 1 
   1       0.3430122000      1.0000000000
 S 1 
   1       0.1669453000      1.0000000000
 P 2 
   1      13.5472892000     -0.6769313712
   2       5.4669419000     -0.3779500978
 P 1 
   1       2.1751721000      1.0000000000
 P 1 
   1       0.8582194000      1.0000000000
 P 1 
   1       0.3376720000      1.0000000000
 D 2 
   1       5.9287253000     -0.3533329857
   2       1.9809209000     -0.7456525731
 D 1 
   1       0.8055417000     -1.0000000000
 D 1 
   1       0.3531244000     -1.0000000000
 F 2 
   1       1.6755626000      0.6311076882
   2       0.5997536000      0.4968166032
 G 1 
   1       1.0024600000     -1.0000000000
  end;

 # Auxiliary/J basis set for element : O 
 NewAuxJGTO O 
 S 7 
   1    2876.8216605000      0.0168151159
   2    1004.7443032000      0.0340137548
   3     369.7579954000      0.1194951309
   4     142.9442404000      0.2664627624
   5      57.8366425000      0.4202764046
   6      24.3864983000      0.2765077335
   7      10.6622662000      0.0057008815
 S 1 
   1       4.8070437000     -1.0000000000
 S 1 
   1       2.2210770000      1.0000000000
 S 1 
   1       1.0447795000      1.0000000000
 S 1 
   1       0.4968425000      1.0000000000
 S 1 
   1       0.2371384000      1.0000000000
 P 2 
   1      64.2613382000     -0.2731534179
   2      16.3006076000     -0.8168011598
 P 1 
   1       4.3550542000      1.0000000000
 P 1 
   1       1.2019554000      1.0000000000
 P 1 
   1       0.3354196000      1.0000000000
 D 2 
   1       9.2146611000     -0.4661230638
   2       2.8435251000     -0.6600908911
 D 1 
   1       0.9955759000     -1.0000000000
 D 1 
   1       0.3649441000     -1.0000000000
 F 2 
   1       2.6420115000      0.5931563945
   2       0.7345613000      0.5931563945
 G 1 
   1       1.3931000000     -1.0000000000
  end;

 # Auxiliary/J basis set for element : S 
 NewAuxJGTO S 
 S 7 
   1    7399.0303145000      0.0295137551
   2    2710.1675859000      0.0559686311
   3    1034.3279062000      0.1764696370
   4     410.4645411000      0.3577969368
   5     168.9762502000      0.4299293578
   6      71.9687889000      0.1259148089
   7      31.6172683000     -0.0646025788
 S 1 
   1      14.2796836000      1.0000000000
 S 1 
   1       6.6060948000      1.0000000000
 S 1 
   1       3.1181477000      1.0000000000
 S 1 
   1       1.4954039000     -1.0000000000
 S 1 
   1       0.7254779000      1.0000000000
 S 1 
   1       0.3544216000      1.0000000000
 S 1 
   1       0.1735525000      1.0000000000
 P 2 
   1      12.6998799000      1.4059102813
   2       4.4295784000     -1.2124994202
 P 1 
   1       1.5232889000      1.0000000000
 P 1 
   1       0.5194667000     -1.0000000000
 P 1 
   1       0.1766547000     -1.0000000000
 D 3 
   1      16.8546461000      1.0295742104
   2       5.0810461000     -0.7461553923
   3       1.5102323000      0.8357028005
 D 1 
   1       0.4451331000      1.0000000000
 D 1 
   1       0.1308362000      1.0000000000
 F 2 
   1       1.0809860000      0.5572698934
   2       0.4161474000      0.5572698934
 G 1 
   1       0.6707100000     -1.0000000000
  end;

 # Auxiliary/J basis set for element : V 
 NewAuxJGTO V 
 S 12 
   1   11942.0842430000      0.0459866720
   2    2430.7110193000      0.1744615821
   3     841.0764301000      0.2900402792
   4     494.7508273000      0.1411212903
   5     291.0298903000      0.2660697186
   6     171.1940483000      0.0446365706
   7      59.2366916000     -0.0408204801
   8      34.8451117000      0.1394665381
   9      20.4971240000      0.2164746715
  10      12.0571314000      0.0864266611
  11       7.0924300000     -0.0568501658
  12       4.1720176000     -0.0126212852
 S 1 
   1       2.4541279000      1.0000000000
 S 1 
   1       1.4436046000      1.0000000000
 S 1 
   1       0.8491792000      1.0000000000
 S 1 
   1       0.2938336000      1.0000000000
 S 1 
   1       0.1728433000      1.0000000000
 S 1 
   1       0.1016725000      1.0000000000
 S 1 
   1       0.0598074000      1.0000000000
 P 1 
   1      16.7130979000     -1.0000000000
 P 1 
   1       4.7454037000     -1.0000000000
 P 1 
   1       1.3889998000      1.0000000000
 P 1 
   1       0.4142440000     -1.0000000000
 P 1 
   1       0.1243234000      1.0000000000
 D 1 
   1       7.7143225000      1.0000000000
 D 1 
   1       3.1170731000      1.0000000000
 D 1 
   1       1.2767950000     -1.0000000000
 D 1 
   1       0.5273386000      1.0000000000
 D 1 
   1       0.2184050000      1.0000000000
 F 2 
   1       3.1309344000     -1.0825667766
   2       1.0419780000      0.1809223232
 F 1 
   1       0.3559044000      1.0000000000
 G 1 
   1       8.7130110000      1.0000000000
 G 1 
   1       2.7493872000      1.0000000000
 G 1 
   1       0.8775089000      1.0000000000
  end;



           ************************************************************
           *        Program running with 8 parallel MPI-processes     *
           *              working on a common directory               *
           ************************************************************
------------------------------------------------------------------------------
                           ORCA GTO INTEGRAL CALCULATION
                           -- RI-GTO INTEGRALS CHOSEN --
------------------------------------------------------------------------------
------------------------------------------------------------------------------
                   ___                                                        
                  /   \      - P O W E R E D   B Y -                         
                 /     \                                                     
                 |  |  |   _    _      __       _____    __    __             
                 |  |  |  | |  | |    /  \     |  _  \  |  |  /  |          
                  \  \/   | |  | |   /    \    | | | |  |  | /  /          
                 / \  \   | |__| |  /  /\  \   | |_| |  |  |/  /          
                |  |  |   |  __  | /  /__\  \  |    /   |      \           
                |  |  |   | |  | | |   __   |  |    \   |  |\   \          
                \     /   | |  | | |  |  |  |  | |\  \  |  | \   \       
                 \___/    |_|  |_| |__|  |__|  |_| \__\ |__|  \__/        
                                                                              
                      - O R C A' S   B I G   F R I E N D -                    
                                      &                                       
                       - I N T E G R A L  F E E D E R -                       
                                                                              
 v1 FN, 2020, v2 2021                                                         
------------------------------------------------------------------------------


Reading SHARK input file input_21.SHARKINP.tmp ... ok
----------------------
SHARK INTEGRAL PACKAGE
----------------------

Number of atoms                             ...     32
Number of basis functions                   ...    517
Number of shells                            ...    255
Maximum angular momentum                    ...      3
Integral batch strategy                     ... SHARK/LIBINT Hybrid
RI-J (if used) integral strategy            ... SPLIT-RIJ (Revised 2003 algorithm where possible)
Printlevel                                  ...      1
Contraction scheme used                     ... SEGMENTED contraction
Coulomb Range Separation                    ... NOT USED
Exchange Range Separation                   ... NOT USED
Finite Nucleus Model                        ... NOT USED
Auxiliary Coulomb fitting basis             ... AVAILABLE
   # of basis functions in Aux-J            ...   1168
   # of shells in Aux-J                     ...    384
   Maximum angular momentum in Aux-J        ...      4
Auxiliary J/K fitting basis                 ... NOT available
Auxiliary Correlation fitting basis         ... NOT available
Auxiliary 'external' fitting basis          ... NOT available
Integral threshold                          ...     1.000000e-10
Primitive cut-off                           ...     1.000000e-11
Primitive pair pre-selection threshold      ...     1.000000e-11

Calculating pre-screening integrals         ... done (  0.1 sec) Dimension = 255
Organizing shell pair data                  ... done (  0.1 sec)
Shell pair information
Total number of shell pairs                 ...     32640
Shell pairs after pre-screening             ...     17835
Total number of primitive shell pairs       ...    123863
Primitive shell pairs kept                  ...     41733
          la=0 lb=0:   5388 shell pairs
          la=1 lb=0:   7066 shell pairs
          la=1 lb=1:   2297 shell pairs
          la=2 lb=0:   1677 shell pairs
          la=2 lb=1:   1115 shell pairs
          la=2 lb=2:    154 shell pairs
          la=3 lb=0:     73 shell pairs
          la=3 lb=1:     52 shell pairs
          la=3 lb=2:     12 shell pairs
          la=3 lb=3:      1 shell pairs

Calculating one electron integrals          ... done (  0.0 sec)
Calculating RI/J V-Matrix + Cholesky decomp.... done (  0.1 sec)
Calculating Nuclear repulsion               ... done (  0.0 sec) ENN=   3211.914898759751 Eh

SHARK setup successfully completed in   0.5 seconds

Maximum memory used throughout the entire GTOINT-calculation: 31.6 MB


           ************************************************************
           *        Program running with 8 parallel MPI-processes     *
           *              working on a common directory               *
           ************************************************************
-------------------------------------------------------------------------------
                                 ORCA SCF
-------------------------------------------------------------------------------

------------
SCF SETTINGS
------------
Hamiltonian:
 Density Functional     Method          .... DFT(GTOs)
 Exchange Functional    Exchange        .... B88
   X-Alpha parameter    XAlpha          ....  0.666667
   Becke's b parameter  XBeta           ....  0.004200
 Correlation Functional Correlation     .... LYP
 LDA part of GGA corr.  LDAOpt          .... VWN-5
 Gradients option       PostSCFGGA      .... off
 Hybrid DFT is turned on
   Fraction HF Exchange ScalHFX         ....  0.200000
   Scaling of DF-GGA-X  ScalDFX         ....  0.720000
   Scaling of DF-GGA-C  ScalDFC         ....  0.810000
   Scaling of DF-LDA-C  ScalLDAC        ....  1.000000
   Perturbative correction              ....  0.000000
   Density functional embedding theory  .... OFF
   NL short-range parameter             ....  4.800000
 RI-approximation to the Coulomb term is turned on
   Number of AuxJ basis functions       .... 1168
   RIJ-COSX (HFX calculated with COS-X)).... on


General Settings:
 Integral files         IntName         .... input_21
 Hartree-Fock type      HFTyp           .... UHF
 Total Charge           Charge          ....   -2
 Multiplicity           Mult            ....    2
 Number of Electrons    NEL             ....  233
 Basis Dimension        Dim             ....  517
 Nuclear Repulsion      ENuc            ....   3211.9148987598 Eh

Convergence Acceleration:
 DIIS                   CNVDIIS         .... on
   Start iteration      DIISMaxIt       ....    12
   Startup error        DIISStart       ....  0.200000
   # of expansion vecs  DIISMaxEq       ....     5
   Bias factor          DIISBfac        ....   1.050
   Max. coefficient     DIISMaxC        ....  10.000
 Trust-Rad. Augm. Hess. CNVTRAH         .... auto
   Auto Start mean grad. ratio tolernc. ....  1.125000
   Auto Start start iteration           ....    20
   Auto Start num. interpolation iter.  ....    10
   Max. Number of Micro iterations      ....    16
   Max. Number of Macro iterations      .... Maxiter - #DIIS iter
   Number of Davidson start vectors     ....     2
   Converg. threshold I  (grad. norm)   ....   5.000e-05
   Converg. threshold II (energy diff.) ....   1.000e-06
   Grad. Scal. Fac. for Micro threshold ....   0.100
   Minimum threshold for Micro iter.    ....   0.010
   NR start threshold (gradient norm)   ....   0.001
   Initial trust radius                 ....   0.400
   Minimum AH scaling param. (alpha)    ....   1.000
   Maximum AH scaling param. (alpha)    .... 1000.000
   Orbital update algorithm             .... Taylor
   White noise on init. David. guess    .... on
   Maximum white noise                  ....   0.010
   Quad. conv. algorithm                .... NR
 SOSCF                  CNVSOSCF        .... off
 Level Shifting         CNVShift        .... on
   Level shift para.    LevelShift      ....    0.2500
   Turn off err/grad.   ShiftErr        ....    0.0010
 Zerner damping         CNVZerner       .... off
 Static damping         CNVDamp         .... on
   Fraction old density DampFac         ....    0.7000
   Max. Damping (<1)    DampMax         ....    0.9800
   Min. Damping (>=0)   DampMin         ....    0.0000
   Turn off err/grad.   DampErr         ....    0.1000
 Fernandez-Rico         CNVRico         .... off

SCF Procedure:
 Maximum # iterations   MaxIter         ....   125
 SCF integral mode      SCFMode         .... Direct
   Integral package                     .... SHARK and LIBINT hybrid scheme
 Reset frequency        DirectResetFreq ....    20
 Integral Threshold     Thresh          ....  1.000e-10 Eh
 Primitive CutOff       TCut            ....  1.000e-11 Eh

Convergence Tolerance:
 Convergence Check Mode ConvCheckMode   .... Total+1el-Energy
 Convergence forced     ConvForced      .... 0
 Energy Change          TolE            ....  1.000e-06 Eh
 1-El. energy change                    ....  1.000e-03 Eh
 DIIS Error             TolErr          ....  1.000e-06


Diagonalization of the overlap matrix:
Smallest eigenvalue                        ... 1.808e-04
Time for diagonalization                   ...    0.103 sec
Threshold for overlap eigenvalues          ... 1.000e-08
Number of eigenvalues below threshold      ... 0
Time for construction of square roots      ...    0.135 sec
Total time needed                          ...    0.242 sec

Time for model grid setup =    0.267 sec

------------------------------
INITIAL GUESS: MODEL POTENTIAL
------------------------------
Loading Hartree-Fock densities                     ... done
Calculating cut-offs                               ... done
Initializing the effective Hamiltonian             ... done
Setting up the integral package (SHARK)            ... done
Starting the Coulomb interaction                   ... done (   0.2 sec)
Reading the grid                                   ... done
Mapping shells                                     ... done
Starting the XC term evaluation                    ... done (   0.1 sec)
  promolecular density results
     # of electrons  =    230.993053738
     EX              =   -307.540446936
     EC              =     -9.026543208
     EX+EC           =   -316.566990145
Transforming the Hamiltonian                       ... done (   0.1 sec)
Diagonalizing the Hamiltonian                      ... done (   0.1 sec)
Back transforming the eigenvectors                 ... done (   0.0 sec)
Now organizing SCF variables                       ... done
                      ------------------
                      INITIAL GUESS DONE (   0.8 sec)
                      ------------------
-------------------
DFT GRID GENERATION
-------------------

General Integration Accuracy     IntAcc      ... 4.388
Radial Grid Type                 RadialGrid  ... OptM3 with GC (2021)
Angular Grid (max. ang.)         AngularGrid ... 4 (Lebedev-302)
Angular grid pruning method      GridPruning ... 4 (adaptive)
Weight generation scheme         WeightScheme... Becke
Basis function cutoff            BFCut       ... 1.0000e-10
Integration weight cutoff        WCut        ... 1.0000e-14
Angular grids for H and He will be reduced by one unit
Partially contracted basis set               ... off
Rotationally invariant grid construction     ... off

Total number of grid points                  ...   184092
Total number of batches                      ...     2890
Average number of points per batch           ...       63
Average number of grid points per atom       ...     5753
Time for grid setup =    1.332 sec

--------------------
COSX GRID GENERATION
--------------------

GRIDX 1
-------
General Integration Accuracy     IntAcc      ... 3.816
Radial Grid Type                 RadialGrid  ... OptM3 with GC (2021)
Angular Grid (max. ang.)         AngularGrid ... 1 (Lebedev-50)
Angular grid pruning method      GridPruning ... 4 (adaptive)
Weight generation scheme         WeightScheme... Becke
Basis function cutoff            BFCut       ... 1.0000e-10
Integration weight cutoff        WCut        ... 1.0000e-14
Angular grids for H and He will be reduced by one unit
Partially contracted basis set               ... on
Rotationally invariant grid construction     ... off

Total number of grid points                  ...    22817
Total number of batches                      ...      377
Average number of points per batch           ...       60
Average number of grid points per atom       ...      713
UseSFitting                                  ... on

GRIDX 2
-------
General Integration Accuracy     IntAcc      ... 4.020
Radial Grid Type                 RadialGrid  ... OptM3 with GC (2021)
Angular Grid (max. ang.)         AngularGrid ... 2 (Lebedev-110)
Angular grid pruning method      GridPruning ... 4 (adaptive)
Weight generation scheme         WeightScheme... Becke
Basis function cutoff            BFCut       ... 1.0000e-10
Integration weight cutoff        WCut        ... 1.0000e-14
Angular grids for H and He will be reduced by one unit
Partially contracted basis set               ... on
Rotationally invariant grid construction     ... off

Total number of grid points                  ...    49176
Total number of batches                      ...      786
Average number of points per batch           ...       62
Average number of grid points per atom       ...     1537
UseSFitting                                  ... on

GRIDX 3
-------
General Integration Accuracy     IntAcc      ... 4.338
Radial Grid Type                 RadialGrid  ... OptM3 with GC (2021)
Angular Grid (max. ang.)         AngularGrid ... 3 (Lebedev-194)
Angular grid pruning method      GridPruning ... 4 (adaptive)
Weight generation scheme         WeightScheme... Becke
Basis function cutoff            BFCut       ... 1.0000e-10
Integration weight cutoff        WCut        ... 1.0000e-14
Angular grids for H and He will be reduced by one unit
Partially contracted basis set               ... on
Rotationally invariant grid construction     ... off

Total number of grid points                  ...   112170
Total number of batches                      ...     1767
Average number of points per batch           ...       63
Average number of grid points per atom       ...     3505
UseSFitting                                  ... on

Time for X-Grid setup             =    1.267 sec

--------------
SCF ITERATIONS
--------------
ITER       Energy         Delta-E        Max-DP      RMS-DP      [F,P]     Damp
               ***  Starting incremental Fock matrix formation  ***
  0  -4592.0153952452   0.000000000000 0.07626720  0.00091108  0.2351233 0.7000
  1  -4592.2990461692  -0.283650924003 0.12005526  0.00090972  0.1560106 0.7000
                               ***Turning on DIIS***
  2  -4592.4441214851  -0.145075315893 0.08404137  0.00057139  0.1091726 0.7000
  3  -4592.5240598227  -0.079938337576 0.11106726  0.00089526  0.0772230 0.0000
  4  -4592.7132431661  -0.189183343418 0.07156797  0.00048637  0.0151235 0.0000
  5  -4592.7187889271  -0.005545761001 0.01233944  0.00010342  0.0105437 0.0000
  6  -4592.7199815836  -0.001192656521 0.00244151  0.00004446  0.0029379 0.0000
  7  -4592.7201808053  -0.000199221688 0.00148250  0.00002232  0.0014335 0.0000
  8  -4592.7202487686  -0.000067963296 0.00154846  0.00001628  0.0011804 0.0000
  9  -4592.7202863245  -0.000037555896 0.00257555  0.00002372  0.0009171 0.0000
               *** Restarting incremental Fock matrix formation ***
                                   *** Resetting DIIS ***
 10  -4592.7203337018  -0.000047377314 0.00132080  0.00001522  0.0008351 0.0000
 11  -4592.7202974760   0.000036225820 0.00034922  0.00000416  0.0025700 0.0000
 12  -4592.7203386610  -0.000041185009 0.00021861  0.00000341  0.0010643 0.0000
 13  -4592.7203461602  -0.000007499137 0.00070283  0.00000505  0.0004496 0.0000
 14  -4592.7203495926  -0.000003432436 0.00031886  0.00000329  0.0001604 0.0000
 15  -4592.7203506441  -0.000001051526 0.00014195  0.00000157  0.0001410 0.0000
 16  -4592.7203508305  -0.000000186402 0.00025425  0.00000198  0.0001241 0.0000
 17  -4592.7203511195  -0.000000288995 0.00013816  0.00000094  0.0000603 0.0000
 18  -4592.7203510961   0.000000023390 0.00004047  0.00000034  0.0000123 0.0000
 19  -4592.7203511056  -0.000000009491 0.00001871  0.00000018  0.0000180 0.0000
                 **** Energy Check signals convergence ****

               *****************************************************
               *                     SUCCESS                       *
               *           SCF CONVERGED AFTER  20 CYCLES          *
               *****************************************************

Old exchange energy                            =    -61.760044499 Eh
New exchange energy                            =    -61.759969807 Eh
Exchange energy change after final integration =      0.000074692 Eh
Total energy after final integration           =  -4592.720276492 Eh
Final COS-X integration done in                =    12.563 sec

----------------
TOTAL SCF ENERGY
----------------

Total Energy       :        -4592.72027649 Eh         -124974.27229 eV

Components:
Nuclear Repulsion  :         3211.91489876 Eh           87400.64776 eV
Electronic Energy  :        -7804.63517525 Eh         -212374.92005 eV
One Electron Energy:       -12787.59398536 Eh         -347968.12270 eV
Two Electron Energy:         4982.95881011 Eh          135593.20265 eV
Max COSX asymmetry :            0.00000074 Eh               0.00002 eV

Virial components:
Potential Energy   :        -9173.76682056 Eh         -249630.88618 eV
Kinetic Energy     :         4581.04654407 Eh          124656.61388 eV
Virial Ratio       :            2.00254827


DFT components:
N(Alpha)           :      117.000001332689 electrons
N(Beta)            :      116.000001550957 electrons
N(Total)           :      233.000002883646 electrons
E(X)               :     -245.478929210670 Eh       
E(C)               :      -10.624226051998 Eh       
E(XC)              :     -256.103155262667 Eh       
DFET-embed. en.    :        0.000000000000 Eh       

---------------
SCF CONVERGENCE
---------------

  Last Energy change         ...   -7.8947e-08  Tolerance :   1.0000e-06
  Last MAX-Density change    ...    0.0000e+00  Tolerance :   1.0000e-05
  Last RMS-Density change    ...    0.0000e+00  Tolerance :   1.0000e-06
  Last DIIS Error            ...    1.0496e-05  Tolerance :   1.0000e-06

             **** THE GBW FILE WAS UPDATED (input_21.gbw) ****
             **** DENSITY input_21.scfp WAS UPDATED ****
             **** ENERGY FILE WAS UPDATED (input_21.en.tmp) ****
----------------------
UHF SPIN CONTAMINATION
----------------------

Warning: in a DFT calculation there is little theoretical justification to 
         calculate <S**2> as in Hartree-Fock theory. We will do it anyways
         but you should keep in mind that the values have only limited relevance

Expectation value of <S**2>     :     0.764861
Ideal value S*(S+1) for S=0.5   :     0.750000
Deviation                       :     0.014861

             **** THE GBW FILE WAS UPDATED (input_21.gbw) ****
             **** DENSITY input_21.scfp WAS UPDATED ****
----------------
ORBITAL ENERGIES
----------------
                 SPIN UP ORBITALS
  NO   OCC          E(Eh)            E(eV) 
   0   1.0000    -196.640001     -5350.8465 
   1   1.0000     -88.678438     -2413.0630 
   2   1.0000     -88.678362     -2413.0609 
   3   1.0000     -88.674684     -2412.9608 
   4   1.0000     -88.674660     -2412.9602 
   5   1.0000     -88.612288     -2411.2630 
   6   1.0000     -88.612279     -2411.2627 
   7   1.0000     -88.611845     -2411.2509 
   8   1.0000     -88.611787     -2411.2493 
   9   1.0000     -22.015804      -599.0805 
  10   1.0000     -18.857107      -513.1280 
  11   1.0000     -18.522642      -504.0267 
  12   1.0000     -18.516849      -503.8691 
  13   1.0000     -18.516810      -503.8680 
  14   1.0000     -10.018131      -272.6072 
  15   1.0000     -10.018095      -272.6062 
  16   1.0000     -10.014842      -272.5177 
  17   1.0000     -10.014821      -272.5171 
  18   1.0000     -10.008772      -272.3525 
  19   1.0000     -10.003886      -272.2196 
  20   1.0000      -9.992297      -271.9042 
  21   1.0000      -9.991796      -271.8906 
  22   1.0000      -9.991573      -271.8845 
  23   1.0000      -9.991081      -271.8711 
  24   1.0000      -7.731934      -210.3966 
  25   1.0000      -7.731865      -210.3947 
  26   1.0000      -7.728447      -210.3017 
  27   1.0000      -7.728436      -210.3014 
  28   1.0000      -7.666826      -208.6249 
  29   1.0000      -7.666814      -208.6246 
  30   1.0000      -7.666128      -208.6060 
  31   1.0000      -7.666056      -208.6040 
  32   1.0000      -5.697193      -155.0285 
  33   1.0000      -5.697123      -155.0266 
  34   1.0000      -5.693686      -154.9331 
  35   1.0000      -5.693681      -154.9329 
  36   1.0000      -5.693278      -154.9220 
  37   1.0000      -5.693212      -154.9202 
  38   1.0000      -5.689816      -154.8278 
  39   1.0000      -5.689804      -154.8274 
  40   1.0000      -5.686704      -154.7431 
  41   1.0000      -5.686635      -154.7412 
  42   1.0000      -5.683167      -154.6468 
  43   1.0000      -5.683153      -154.6465 
  44   1.0000      -5.631665      -153.2454 
  45   1.0000      -5.631664      -153.2454 
  46   1.0000      -5.630999      -153.2273 
  47   1.0000      -5.630926      -153.2253 
  48   1.0000      -5.625220      -153.0700 
  49   1.0000      -5.625218      -153.0700 
  50   1.0000      -5.624834      -153.0595 
  51   1.0000      -5.624831      -153.0594 
  52   1.0000      -5.624603      -153.0532 
  53   1.0000      -5.624539      -153.0515 
  54   1.0000      -5.624083      -153.0391 
  55   1.0000      -5.624016      -153.0373 
  56   1.0000      -2.409504       -65.5659 
  57   1.0000      -1.450888       -39.4807 
  58   1.0000      -1.439276       -39.1647 
  59   1.0000      -1.438202       -39.1355 
  60   1.0000      -0.644928       -17.5494 
  61   1.0000      -0.641603       -17.4589 
  62   1.0000      -0.618170       -16.8213 
  63   1.0000      -0.593396       -16.1471 
  64   1.0000      -0.592788       -16.1306 
  65   1.0000      -0.577529       -15.7154 
  66   1.0000      -0.572704       -15.5841 
  67   1.0000      -0.492563       -13.4033 
  68   1.0000      -0.488418       -13.2905 
  69   1.0000      -0.487492       -13.2653 
  70   1.0000      -0.484074       -13.1723 
  71   1.0000      -0.423450       -11.5227 
  72   1.0000      -0.418612       -11.3910 
  73   1.0000      -0.412353       -11.2207 
  74   1.0000      -0.407103       -11.0778 
  75   1.0000      -0.377176       -10.2635 
  76   1.0000      -0.371945       -10.1211 
  77   1.0000      -0.293576        -7.9886 
  78   1.0000      -0.292251        -7.9526 
  79   1.0000      -0.279100        -7.5947 
  80   1.0000      -0.272603        -7.4179 
  81   1.0000      -0.260833        -7.0976 
  82   1.0000      -0.254644        -6.9292 
  83   1.0000      -0.242790        -6.6067 
  84   1.0000      -0.236113        -6.4250 
  85   1.0000      -0.196424        -5.3450 
  86   1.0000      -0.192777        -5.2457 
  87   1.0000      -0.191584        -5.2133 
  88   1.0000      -0.190093        -5.1727 
  89   1.0000      -0.185154        -5.0383 
  90   1.0000      -0.182867        -4.9761 
  91   1.0000      -0.180378        -4.9083 
  92   1.0000      -0.150664        -4.0998 
  93   1.0000      -0.150610        -4.0983 
  94   1.0000      -0.143870        -3.9149 
  95   1.0000      -0.142362        -3.8739 
  96   1.0000      -0.141661        -3.8548 
  97   1.0000      -0.097361        -2.6493 
  98   1.0000      -0.096297        -2.6204 
  99   1.0000      -0.089689        -2.4406 
 100   1.0000      -0.083484        -2.2717 
 101   1.0000      -0.081630        -2.2213 
 102   1.0000      -0.079592        -2.1658 
 103   1.0000      -0.069782        -1.8989 
 104   1.0000      -0.050072        -1.3625 
 105   1.0000      -0.038197        -1.0394 
 106   1.0000      -0.038162        -1.0384 
 107   1.0000      -0.035707        -0.9716 
 108   1.0000      -0.031771        -0.8645 
 109   1.0000      -0.013055        -0.3552 
 110   1.0000      -0.004489        -0.1222 
 111   1.0000      -0.002810        -0.0765 
 112   1.0000       0.006093         0.1658 
 113   1.0000       0.011118         0.3025 
 114   1.0000       0.016297         0.4435 
 115   1.0000       0.033504         0.9117 
 116   1.0000       0.059616         1.6222 
 117   0.0000       0.187792         5.1101 
 118   0.0000       0.193229         5.2580 
 119   0.0000       0.195494         5.3197 
 120   0.0000       0.199510         5.4289 
 121   0.0000       0.211537         5.7562 
 122   0.0000       0.213082         5.7982 
 123   0.0000       0.218620         5.9489 
 124   0.0000       0.224007         6.0955 
 125   0.0000       0.226887         6.1739 
 126   0.0000       0.233951         6.3661 
 127   0.0000       0.240273         6.5382 
 128   0.0000       0.243078         6.6145 
 129   0.0000       0.243184         6.6174 
 130   0.0000       0.244898         6.6640 
 131   0.0000       0.248058         6.7500 
 132   0.0000       0.253961         6.9106 
 133   0.0000       0.254241         6.9182 
 134   0.0000       0.257938         7.0189 
 135   0.0000       0.261416         7.1135 
 136   0.0000       0.271560         7.3895 
 137   0.0000       0.273757         7.4493 
 138   0.0000       0.277695         7.5565 
 139   0.0000       0.281948         7.6722 
 140   0.0000       0.283702         7.7199 
 141   0.0000       0.286232         7.7888 
 142   0.0000       0.288066         7.8387 
 143   0.0000       0.293622         7.9899 
 144   0.0000       0.305005         8.2996 
 145   0.0000       0.306572         8.3423 
 146   0.0000       0.314242         8.5510 
 147   0.0000       0.320501         8.7213 
 148   0.0000       0.322856         8.7853 
 149   0.0000       0.331527         9.0213 
 150   0.0000       0.347501         9.4560 
 151   0.0000       0.360458         9.8086 
 152   0.0000       0.370214        10.0740 
 153   0.0000       0.381065        10.3693 
 154   0.0000       0.392535        10.6814 
 155   0.0000       0.393594        10.7102 
 156   0.0000       0.396822        10.7981 
 157   0.0000       0.399434        10.8692 
 158   0.0000       0.402607        10.9555 
 159   0.0000       0.411853        11.2071 
 160   0.0000       0.423227        11.5166 
 161   0.0000       0.424078        11.5398 
 162   0.0000       0.426351        11.6016 
 163   0.0000       0.429656        11.6915 
 164   0.0000       0.444025        12.0825 
 165   0.0000       0.451309        12.2807 
 166   0.0000       0.454992        12.3810 
 167   0.0000       0.457256        12.4426 
 168   0.0000       0.457670        12.4538 
 169   0.0000       0.462515        12.5857 
 170   0.0000       0.471147        12.8206 
 171   0.0000       0.477217        12.9857 
 172   0.0000       0.481894        13.1130 
 173   0.0000       0.487783        13.2732 
 174   0.0000       0.493648        13.4328 
 175   0.0000       0.494658        13.4603 
 176   0.0000       0.501062        13.6346 
 177   0.0000       0.501485        13.6461 
 178   0.0000       0.504193        13.7198 
 179   0.0000       0.506027        13.7697 
 180   0.0000       0.517218        14.0742 
 181   0.0000       0.517398        14.0791 
 182   0.0000       0.520848        14.1730 
 183   0.0000       0.524486        14.2720 
 184   0.0000       0.534941        14.5565 
 185   0.0000       0.545101        14.8329 
 186   0.0000       0.547725        14.9044 
 187   0.0000       0.551125        14.9969 
 188   0.0000       0.553470        15.0607 
 189   0.0000       0.559468        15.2239 
 190   0.0000       0.562806        15.3147 
 191   0.0000       0.569993        15.5103 
 192   0.0000       0.574746        15.6396 
 193   0.0000       0.575254        15.6534 
 194   0.0000       0.577492        15.7144 
 195   0.0000       0.578380        15.7385 
 196   0.0000       0.581437        15.8217 
 197   0.0000       0.582056        15.8386 
 198   0.0000       0.587567        15.9885 
 199   0.0000       0.589263        16.0347 
 200   0.0000       0.593386        16.1468 
 201   0.0000       0.596885        16.2421 
 202   0.0000       0.602305        16.3896 
 203   0.0000       0.606803        16.5120 
 204   0.0000       0.616195        16.7675 
 205   0.0000       0.618158        16.8209 
 206   0.0000       0.619512        16.8578 
 207   0.0000       0.625267        17.0144 
 208   0.0000       0.628130        17.0923 
 209   0.0000       0.632575        17.2133 
 210   0.0000       0.636127        17.3099 
 211   0.0000       0.642245        17.4764 
 212   0.0000       0.647517        17.6198 
 213   0.0000       0.650322        17.6962 
 214   0.0000       0.654034        17.7972 
 215   0.0000       0.657725        17.8976 
 216   0.0000       0.658716        17.9246 
 217   0.0000       0.663824        18.0636 
 218   0.0000       0.670621        18.2485 
 219   0.0000       0.675379        18.3780 
 220   0.0000       0.677686        18.4408 
 221   0.0000       0.685664        18.6579 
 222   0.0000       0.691989        18.8300 
 223   0.0000       0.699362        19.0306 
 224   0.0000       0.705891        19.2083 
 225   0.0000       0.728244        19.8165 
 226   0.0000       0.741303        20.1719 
 227   0.0000       0.742700        20.2099 
 228   0.0000       0.747024        20.3276 
 229   0.0000       0.762064        20.7368 
 230   0.0000       0.769986        20.9524 
 231   0.0000       0.777744        21.1635 
 232   0.0000       0.780425        21.2365 
 233   0.0000       0.797831        21.7101 
 234   0.0000       0.802186        21.8286 
 235   0.0000       0.838058        22.8047 
 236   0.0000       0.861696        23.4479 
 237   0.0000       0.868854        23.6427 
 238   0.0000       0.872979        23.7550 
 239   0.0000       0.881762        23.9940 
 240   0.0000       0.895013        24.3545 
 241   0.0000       0.904572        24.6147 
 242   0.0000       0.906617        24.6703 
 243   0.0000       0.916537        24.9402 
 244   0.0000       0.920053        25.0359 
 245   0.0000       0.922998        25.1161 
 246   0.0000       0.931088        25.3362 
 247   0.0000       0.950910        25.8756 
 248   0.0000       0.960502        26.1366 
 249   0.0000       0.973019        26.4772 
 250   0.0000       0.976080        26.5605 
 251   0.0000       0.976283        26.5660 
 252   0.0000       0.987158        26.8619 
 253   0.0000       0.988038        26.8859 
 254   0.0000       0.994143        27.0520 
 255   0.0000       1.003723        27.3127 
 256   0.0000       1.006452        27.3869 
 257   0.0000       1.012000        27.5379 
 258   0.0000       1.021833        27.8055 
 259   0.0000       1.036834        28.2137 
 260   0.0000       1.045209        28.4416 
 261   0.0000       1.056947        28.7610 
 262   0.0000       1.058599        28.8059 
 263   0.0000       1.067426        29.0461 
 264   0.0000       1.079462        29.3737 
 265   0.0000       1.089829        29.6558 
 266   0.0000       1.099166        29.9098 
 267   0.0000       1.118433        30.4341 
 268   0.0000       1.123223        30.5645 
 269   0.0000       1.124798        30.6073 
 270   0.0000       1.128702        30.7135 
 271   0.0000       1.128943        30.7201 
 272   0.0000       1.135007        30.8851 
 273   0.0000       1.135631        30.9021 
 274   0.0000       1.138407        30.9776 
 275   0.0000       1.146630        31.2014 
 276   0.0000       1.160977        31.5918 
 277   0.0000       1.162354        31.6293 
 278   0.0000       1.183403        32.2020 
 279   0.0000       1.190257        32.3885 
 280   0.0000       1.201361        32.6907 
 281   0.0000       1.236232        33.6396 
 282   0.0000       1.238526        33.7020 
 283   0.0000       1.268382        34.5144 
 284   0.0000       1.274316        34.6759 
 285   0.0000       1.290404        35.1137 
 286   0.0000       1.299863        35.3711 
 287   0.0000       1.303065        35.4582 
 288   0.0000       1.315729        35.8028 
 289   0.0000       1.349745        36.7284 
 290   0.0000       1.360399        37.0184 
 291   0.0000       1.373228        37.3674 
 292   0.0000       1.373861        37.3847 
 293   0.0000       1.407517        38.3005 
 294   0.0000       1.415729        38.5240 
 295   0.0000       1.428203        38.8634 
 296   0.0000       1.440794        39.2060 
 297   0.0000       1.450329        39.4655 
 298   0.0000       1.464881        39.8614 
 299   0.0000       1.465707        39.8839 
 300   0.0000       1.473747        40.1027 
 301   0.0000       1.481859        40.3234 
 302   0.0000       1.484398        40.3925 
 303   0.0000       1.486834        40.4588 
 304   0.0000       1.495559        40.6962 
 305   0.0000       1.513896        41.1952 
 306   0.0000       1.527221        41.5578 
 307   0.0000       1.528919        41.6040 
 308   0.0000       1.547503        42.1097 
 309   0.0000       1.552613        42.2488 
 310   0.0000       1.561727        42.4967 
 311   0.0000       1.562642        42.5217 
 312   0.0000       1.601004        43.5655 
 313   0.0000       1.603280        43.6275 
 314   0.0000       1.610955        43.8363 
 315   0.0000       1.616364        43.9835 
 316   0.0000       1.623173        44.1688 
 317   0.0000       1.640825        44.6491 
 318   0.0000       1.659557        45.1588 
 319   0.0000       1.666937        45.3597 
 320   0.0000       1.670279        45.4506 
 321   0.0000       1.672903        45.5220 
 322   0.0000       1.675602        45.5954 
 323   0.0000       1.694782        46.1174 
 324   0.0000       1.701893        46.3109 
 325   0.0000       1.707427        46.4615 
 326   0.0000       1.723908        46.9099 
 327   0.0000       1.728905        47.0459 
 328   0.0000       1.747169        47.5429 
 329   0.0000       1.752995        47.7014 
 330   0.0000       1.754940        47.7543 
 331   0.0000       1.771563        48.2067 
 332   0.0000       1.772952        48.2445 
 333   0.0000       1.790274        48.7158 
 334   0.0000       1.795770        48.8654 
 335   0.0000       1.797466        48.9115 
 336   0.0000       1.804926        49.1145 
 337   0.0000       1.826494        49.7014 
 338   0.0000       1.833552        49.8935 
 339   0.0000       1.837990        50.0142 
 340   0.0000       1.844631        50.1950 
 341   0.0000       1.848724        50.3063 
 342   0.0000       1.851357        50.3780 
 343   0.0000       1.856243        50.5109 
 344   0.0000       1.860869        50.6368 
 345   0.0000       1.863000        50.6948 
 346   0.0000       1.879030        51.1310 
 347   0.0000       1.919319        52.2273 
 348   0.0000       1.928541        52.4783 
 349   0.0000       1.932031        52.5732 
 350   0.0000       1.938407        52.7467 
 351   0.0000       1.948741        53.0279 
 352   0.0000       1.954835        53.1938 
 353   0.0000       1.955482        53.2114 
 354   0.0000       1.962194        53.3940 
 355   0.0000       1.964646        53.4607 
 356   0.0000       1.972062        53.6625 
 357   0.0000       2.009173        54.6724 
 358   0.0000       2.011208        54.7277 
 359   0.0000       2.039077        55.4861 
 360   0.0000       2.047931        55.7270 
 361   0.0000       2.064732        56.1842 
 362   0.0000       2.067270        56.2533 
 363   0.0000       2.067461        56.2585 
 364   0.0000       2.081972        56.6533 
 365   0.0000       2.106416        57.3185 
 366   0.0000       2.117092        57.6090 
 367   0.0000       2.118300        57.6419 
 368   0.0000       2.133351        58.0514 
 369   0.0000       2.149983        58.5040 
 370   0.0000       2.155243        58.6471 
 371   0.0000       2.165513        58.9266 
 372   0.0000       2.169976        59.0481 
 373   0.0000       2.179071        59.2955 
 374   0.0000       2.186404        59.4951 
 375   0.0000       2.200034        59.8660 
 376   0.0000       2.207467        60.0682 
 377   0.0000       2.212802        60.2134 
 378   0.0000       2.225959        60.5714 
 379   0.0000       2.234732        60.8101 
 380   0.0000       2.237787        60.8933 
 381   0.0000       2.240846        60.9765 
 382   0.0000       2.242370        61.0180 
 383   0.0000       2.265218        61.6397 
 384   0.0000       2.266639        61.6784 
 385   0.0000       2.286123        62.2086 
 386   0.0000       2.289971        62.3133 
 387   0.0000       2.293710        62.4150 
 388   0.0000       2.297487        62.5178 
 389   0.0000       2.308860        62.8273 
 390   0.0000       2.323941        63.2376 
 391   0.0000       2.344438        63.7954 
 392   0.0000       2.353735        64.0484 
 393   0.0000       2.365531        64.3694 
 394   0.0000       2.392176        65.0944 
 395   0.0000       2.404115        65.4193 
 396   0.0000       2.407233        65.5041 
 397   0.0000       2.409436        65.5641 
 398   0.0000       2.423990        65.9601 
 399   0.0000       2.440975        66.4223 
 400   0.0000       2.449780        66.6619 
 401   0.0000       2.451704        66.7143 
 402   0.0000       2.486488        67.6608 
 403   0.0000       2.509688        68.2921 
 404   0.0000       2.513548        68.3971 
 405   0.0000       2.519445        68.5576 
 406   0.0000       2.547584        69.3233 
 407   0.0000       2.548249        69.3414 
 408   0.0000       2.550472        69.4019 
 409   0.0000       2.555099        69.5278 
 410   0.0000       2.556571        69.5678 
 411   0.0000       2.593796        70.5808 
 412   0.0000       2.598463        70.7078 
 413   0.0000       2.615805        71.1797 
 414   0.0000       2.616731        71.2049 
 415   0.0000       2.617995        71.2393 
 416   0.0000       2.631008        71.5934 
 417   0.0000       2.638110        71.7866 
 418   0.0000       2.663194        72.4692 
 419   0.0000       2.671076        72.6837 
 420   0.0000       2.677342        72.8542 
 421   0.0000       2.679692        72.9181 
 422   0.0000       2.697925        73.4143 
 423   0.0000       2.701627        73.5150 
 424   0.0000       2.737090        74.4800 
 425   0.0000       2.765791        75.2610 
 426   0.0000       2.775003        75.5117 
 427   0.0000       2.775831        75.5342 
 428   0.0000       2.790128        75.9233 
 429   0.0000       2.800156        76.1961 
 430   0.0000       2.806984        76.3819 
 431   0.0000       2.834210        77.1228 
 432   0.0000       2.842116        77.3379 
 433   0.0000       2.844696        77.4081 
 434   0.0000       2.862660        77.8969 
 435   0.0000       2.876832        78.2826 
 436   0.0000       2.890879        78.6648 
 437   0.0000       2.894361        78.7596 
 438   0.0000       2.911133        79.2160 
 439   0.0000       2.913381        79.2771 
 440   0.0000       2.921710        79.5038 
 441   0.0000       2.926182        79.6255 
 442   0.0000       2.926991        79.6475 
 443   0.0000       2.950236        80.2800 
 444   0.0000       2.965184        80.6867 
 445   0.0000       3.012588        81.9767 
 446   0.0000       3.025514        82.3284 
 447   0.0000       3.034836        82.5821 
 448   0.0000       3.055004        83.1309 
 449   0.0000       3.070541        83.5537 
 450   0.0000       3.075832        83.6976 
 451   0.0000       3.178502        86.4914 
 452   0.0000       3.202100        87.1336 
 453   0.0000       3.299732        89.7903 
 454   0.0000       3.337488        90.8177 
 455   0.0000       3.399364        92.5014 
 456   0.0000       3.429147        93.3118 
 457   0.0000       3.443613        93.7055 
 458   0.0000       3.451889        93.9307 
 459   0.0000       3.454881        94.0121 
 460   0.0000       3.486476        94.8718 
 461   0.0000       3.494592        95.0927 
 462   0.0000       3.517234        95.7088 
 463   0.0000       3.538954        96.2998 
 464   0.0000       3.556529        96.7781 
 465   0.0000       3.564276        96.9889 
 466   0.0000       3.575000        97.2807 
 467   0.0000       3.577734        97.3551 
 468   0.0000       3.577935        97.3606 
 469   0.0000       3.802304       103.4660 
 470   0.0000       3.844482       104.6137 
 471   0.0000       3.861503       105.0769 
 472   0.0000       3.994782       108.7036 
 473   0.0000       4.215943       114.7216 
 474   0.0000       4.542702       123.6132 
 475   0.0000       4.559778       124.0779 
 476   0.0000       4.563123       124.1689 
 477   0.0000       4.591292       124.9354 
 478   0.0000       4.619445       125.7015 
 479   0.0000       4.619824       125.7118 
 480   0.0000       5.202446       141.5658 
 481   0.0000       7.008363       190.7072 
 482   0.0000       7.054716       191.9686 
 483   0.0000       7.060329       192.1213 
 484   0.0000      18.711286       509.1600 
 485   0.0000      18.762432       510.5517 
 486   0.0000      18.998261       516.9690 
 487   0.0000      19.013928       517.3953 
 488   0.0000      19.047626       518.3122 
 489   0.0000      19.052511       518.4452 
 490   0.0000      19.247673       523.7558 
 491   0.0000      19.328885       525.9657 
 492   0.0000      19.779181       538.2189 
 493   0.0000      21.668823       589.6387 
 494   0.0000      21.702160       590.5458 
 495   0.0000      22.100272       601.3790 
[...]
Total number of batches                      ...      238
Average number of points per batch           ...       58
Average number of grid points per atom       ...      437

Memory available               ... 870.3 MB
Memory needed per perturbation ...  23.5 MB
Perturbations treated per batch... 3
Number of batches              ... 1
     CP-SCF ITERATION   0:   4.4729e-02 (   2.9 sec   0/  3 done)
     CP-SCF ITERATION   1:   1.4924e-03 (   2.9 sec   0/  3 done)
     CP-SCF ITERATION   2:   4.2750e-04 (   3.0 sec   3/  3 done)
                    *** THE CP-SCF HAS CONVERGED ***

Forming final perturbed densities           ... done
Transforming perturbed density to AO basis  ... done

 Raw HFC matrix (all values in MHz): 
 -----------------------------------
                 0.8730               0.1092              -0.2704
                 0.1085              -0.5065              -0.0005
                -0.2700              -0.0010              -0.4746

 A(FC)          -0.0350              -0.0350              -0.0350
 A(SD)          -0.4677              -0.5091               0.9768
 A(ORB+DIA)      0.0029               0.0027              -0.0087    A(PC) =  -0.0010
 A(ORB)          0.0029               0.0028              -0.0089    A(PC) =  -0.0010
 A(DIA)         -0.0000              -0.0001               0.0002    A(PC) =   0.0000
             ----------           ----------           ----------
 A(Tot)         -0.4998              -0.5414               0.9331    A(iso)=   -0.0360
 Orientation: 
  X          -0.0531467            0.1952591           -0.9793106
  Y          -0.8024318           -0.5920747           -0.0745028
  Z          -0.5943724            0.7818704            0.1881489

Notes:  (1) The A matrix conforms to the "SAI" spin Hamiltonian convention.
        (2) Tensor is right-handed.

 Raw EFG matrix (all values in a.u.**-3):
 -----------------------------------
            -0.1069      -0.1021      -0.0541
            -0.1021       0.1595       0.1578
            -0.0541       0.1578      -0.0526

 V(El)       0.6681       0.3598      -1.0279
 V(Nuc)     -0.8048      -0.5014       1.3062
         ----------   ----------   ----------
 V(Tot)     -0.1367      -0.1416       0.2783 
 Orientation: 
  X      -0.0571399    0.9561192    0.2873517
  Y       0.4541259    0.2812136   -0.8453925
  Z      -0.8891033    0.0821883   -0.4502671

Note: Tensor is right-handed


 Quadrupole tensor eigenvalues (in MHz;Q= 0.0029 I=  1.0)
  e**2qQ            =     0.186876 MHz 
  e**2qQ/(4I*(2I-1))=     0.046719 MHz 
  eta               =     0.017771
  NOTE: the diagonal representation of the SH term I*Q*I = e**2qQ/(4I(2I-1))*[-(1-eta),-(1+eta),2]

 RHO(0)=      0.438154751 a.u.**-3

 -----------------------------------------------------------
 Nucleus  31H : A:ISTP=    1 I=  0.5 P=533.5514 MHz/au**3
                Q:ISTP=    2 I=  1.0 Q=  0.0029 barn     
 -----------------------------------------------------------
 Solving for nuclear perturbation:
Forming RHS of the CP-SCF equations         ... 
Calc. nucleus orbit integrals (SHARK)       ... done

------------------------------------------------------------------------------
                           ORCA CP-SCF CALCULATION
------------------------------------------------------------------------------

Input orbitals are from        ... input_21.gbw
Input Perturbation             ... input_21.pin.tmp
Wavefunction output            ... input_21.pout.tmp
Perturbation mode              ... Imaginary perturbation
Solver                         ... POPLE
Max. number of iterations      ... 64
Convergence tolerance          ... 1.000e-03
Integral handling              ... Direct
DFT GridXC                     ... 1
COSX GridX                     ... 1
COSX IntAccX                   ... 3.067
COSX Algorithm                 ... Auto
Number of perturbations        ... 3
Number of operators            ... 2
Orbital ranges used for CP-SCF:
 Operator 0:  Orbitals   0...116  to 117...516
 Operator 1:  Orbitals   0...115  to 116...516
Variables per perturbation     ... 93316
DFT calculation                         ... on
XC functional terms                     ... off
Hybrid DFT                              ... on
   Exchange mixing (SCF)                ...  0.200
   Exchange mixing (CP-SCF)             ...  0.200
   GGA exch. scaling(SCF)               ...  0.720
   GGA exch. scaling (CP-SCF)           ...  0.720
   GGA corr. scaling (SCF)              ...  0.810
   GGA corr. scaling (CP-SCF)           ...  0.810

CP-SCF GRID
-----------

General Integration Accuracy     IntAcc      ... 3.467
Radial Grid Type                 RadialGrid  ... OptM3 with GC (2021)
Angular Grid (max. ang.)         AngularGrid ... 1 (Lebedev-50)
Angular grid pruning method      GridPruning ... 4 (adaptive)
Weight generation scheme         WeightScheme... Becke
Basis function cutoff            BFCut       ... 1.0000e-10
Integration weight cutoff        WCut        ... 1.0000e-14
Angular grids for H and He will be reduced by one unit
Partially contracted basis set               ... off
Rotationally invariant grid construction     ... off

Total number of grid points                  ...    31442
Total number of batches                      ...      505
Average number of points per batch           ...       62
Average number of grid points per atom       ...      983

CP-SCF GRIDX
------------

General Integration Accuracy     IntAcc      ... 3.067
Radial Grid Type                 RadialGrid  ... OptM3 with GC (2021)
Angular Grid (max. ang.)         AngularGrid ... 1 (Lebedev-50)
Angular grid pruning method      GridPruning ... 4 (adaptive)
Weight generation scheme         WeightScheme... Becke
Basis function cutoff            BFCut       ... 1.0000e-10
Integration weight cutoff        WCut        ... 1.0000e-14
Angular grids for H and He will be reduced by one unit
Partially contracted basis set               ... on
Rotationally invariant grid construction     ... off

Total number of grid points                  ...    13991
Total number of batches                      ...      238
Average number of points per batch           ...       58
Average number of grid points per atom       ...      437

Memory available               ... 868.7 MB
Memory needed per perturbation ...  23.5 MB
Perturbations treated per batch... 3
Number of batches              ... 1
     CP-SCF ITERATION   0:   4.2193e-02 (   2.9 sec   0/  3 done)
     CP-SCF ITERATION   1:   1.2952e-03 (   2.9 sec   1/  3 done)
     CP-SCF ITERATION   2:   2.2936e-04 (   2.4 sec   3/  3 done)
                    *** THE CP-SCF HAS CONVERGED ***

Forming final perturbed densities           ... done
Transforming perturbed density to AO basis  ... done

 Raw HFC matrix (all values in MHz): 
 -----------------------------------
                 0.4858              -0.1068              -0.1197
                -0.1078              -0.2473               0.0141
                -0.1196               0.0138              -0.2304

 A(FC)           0.0031               0.0031               0.0031
 A(SD)          -0.2534              -0.2683               0.5217
 A(ORB+DIA)      0.0013               0.0018              -0.0043    A(PC) =  -0.0004
 A(ORB)          0.0014               0.0018              -0.0044    A(PC) =  -0.0004
 A(DIA)         -0.0001              -0.0000               0.0001    A(PC) =   0.0000
             ----------           ----------           ----------
 A(Tot)         -0.2490              -0.2634               0.5205    A(iso)=    0.0027
 Orientation: 
  X           0.1215675            0.1720489           -0.9775585
  Y          -0.2424351            0.9601813            0.1388417
  Z           0.9625210            0.2201158            0.1584375

Notes:  (1) The A matrix conforms to the "SAI" spin Hamiltonian convention.
        (2) Tensor is right-handed.

 Raw EFG matrix (all values in a.u.**-3):
 -----------------------------------
             0.1785      -0.1062       0.1505
            -0.1062      -0.1064      -0.0536
             0.1505      -0.0536      -0.0721

 V(El)       0.5460       0.8180      -1.3641
 V(Nuc)     -0.6853      -0.9640       1.6493
         ----------   ----------   ----------
 V(Tot)     -0.1392      -0.1459       0.2852 
 Orientation: 
  X       0.4857932   -0.1227245    0.8654153
  Y       0.6860901    0.6669808   -0.2905461
  Z      -0.5415583    0.7348982    0.4082148

Note: Tensor is right-handed


 Quadrupole tensor eigenvalues (in MHz;Q= 0.0029 I=  1.0)
  e**2qQ            =     0.191499 MHz 
  e**2qQ/(4I*(2I-1))=     0.047875 MHz 
  eta               =     0.023446
  NOTE: the diagonal representation of the SH term I*Q*I = e**2qQ/(4I(2I-1))*[-(1-eta),-(1+eta),2]

 RHO(0)=      0.442878087 a.u.**-3

 -----------------------------------------------------------
 Nucleus   0V : A:ISTP=   51 I=  3.5 P=140.5173 MHz/au**3
                Q:ISTP=   51 I=  3.5 Q= -0.0430 barn     
 -----------------------------------------------------------
 Solving for nuclear perturbation:
Forming RHS of the CP-SCF equations         ... 
Calc. nucleus orbit integrals (SHARK)       ... done

------------------------------------------------------------------------------
                           ORCA CP-SCF CALCULATION
------------------------------------------------------------------------------

Input orbitals are from        ... input_21.gbw
Input Perturbation             ... input_21.pin.tmp
Wavefunction output            ... input_21.pout.tmp
Perturbation mode              ... Imaginary perturbation
Solver                         ... POPLE
Max. number of iterations      ... 64
Convergence tolerance          ... 1.000e-03
Integral handling              ... Direct
DFT GridXC                     ... 1
COSX GridX                     ... 1
COSX IntAccX                   ... 3.067
COSX Algorithm                 ... Auto
Number of perturbations        ... 3
Number of operators            ... 2
Orbital ranges used for CP-SCF:
 Operator 0:  Orbitals   0...116  to 117...516
 Operator 1:  Orbitals   0...115  to 116...516
Variables per perturbation     ... 93316
DFT calculation                         ... on
XC functional terms                     ... off
Hybrid DFT                              ... on
   Exchange mixing (SCF)                ...  0.200
   Exchange mixing (CP-SCF)             ...  0.200
   GGA exch. scaling(SCF)               ...  0.720
   GGA exch. scaling (CP-SCF)           ...  0.720
   GGA corr. scaling (SCF)              ...  0.810
   GGA corr. scaling (CP-SCF)           ...  0.810

CP-SCF GRID
-----------

General Integration Accuracy     IntAcc      ... 3.467
Radial Grid Type                 RadialGrid  ... OptM3 with GC (2021)
Angular Grid (max. ang.)         AngularGrid ... 1 (Lebedev-50)
Angular grid pruning method      GridPruning ... 4 (adaptive)
Weight generation scheme         WeightScheme... Becke
Basis function cutoff            BFCut       ... 1.0000e-10
Integration weight cutoff        WCut        ... 1.0000e-14
Angular grids for H and He will be reduced by one unit
Partially contracted basis set               ... off
Rotationally invariant grid construction     ... off

Total number of grid points                  ...    31442
Total number of batches                      ...      505
Average number of points per batch           ...       62
Average number of grid points per atom       ...      983

CP-SCF GRIDX
------------

General Integration Accuracy     IntAcc      ... 3.067
Radial Grid Type                 RadialGrid  ... OptM3 with GC (2021)
Angular Grid (max. ang.)         AngularGrid ... 1 (Lebedev-50)
Angular grid pruning method      GridPruning ... 4 (adaptive)
Weight generation scheme         WeightScheme... Becke
Basis function cutoff            BFCut       ... 1.0000e-10
Integration weight cutoff        WCut        ... 1.0000e-14
Angular grids for H and He will be reduced by one unit
Partially contracted basis set               ... on
Rotationally invariant grid construction     ... off

Total number of grid points                  ...    13991
Total number of batches                      ...      238
Average number of points per batch           ...       58
Average number of grid points per atom       ...      437

Memory available               ... 867.1 MB
Memory needed per perturbation ...  23.5 MB
Perturbations treated per batch... 3
Number of batches              ... 1
     CP-SCF ITERATION   0:   1.1250e+01 (   3.1 sec   0/  3 done)
     CP-SCF ITERATION   1:   1.8336e+00 (   2.9 sec   0/  3 done)
     CP-SCF ITERATION   2:   3.2111e-01 (   3.0 sec   0/  3 done)
     CP-SCF ITERATION   3:   3.7789e-02 (   3.0 sec   0/  3 done)
     CP-SCF ITERATION   4:   9.3205e-03 (   3.0 sec   0/  3 done)
     CP-SCF ITERATION   5:   2.0399e-03 (   3.0 sec   0/  3 done)
     CP-SCF ITERATION   6:   3.1315e-04 (   3.0 sec   3/  3 done)
                    *** THE CP-SCF HAS CONVERGED ***

Forming final perturbed densities           ... done
Transforming perturbed density to AO basis  ... done

 Raw HFC matrix (all values in MHz): 
 -----------------------------------
              -186.8052            -140.7140              -8.5859
              -140.3438            -265.7010             -21.7620
                -8.4174             -21.5712             -77.1984

 A(FC)        -165.4716            -165.4716            -165.4716
 A(SD)         100.8264              88.5062            -189.3326
 A(ORB+DIA)     -6.5239              -7.6640             -19.1018    A(PC) = -11.0966
 A(ORB)         -6.5236              -7.6645             -19.1017    A(PC) = -11.0966
 A(DIA)         -0.0004               0.0005              -0.0001    A(PC) =  -0.0000
             ----------           ----------           ----------
 A(Tot)        -71.1692             -84.6295            -373.9060    A(iso)= -176.5682
 Orientation: 
  X          -0.4261264            0.6760375           -0.6011569
  Y           0.3992589           -0.4557555           -0.7955371
  Z          -0.8117934           -0.5790166           -0.0757046

Notes:  (1) The A matrix conforms to the "SAI" spin Hamiltonian convention.
        (2) Tensor is right-handed.

 Raw EFG matrix (all values in a.u.**-3):
 -----------------------------------
             0.0043       0.2282       0.0542
             0.2282       0.1256      -0.0098
             0.0542      -0.0098      -0.1299

 V(El)       0.1392      -0.4685       0.3293
 V(Nuc)     -0.2377       0.2645      -0.0268
         ----------   ----------   ----------
 V(Tot)     -0.0985      -0.2041       0.3025 
 Orientation: 
  X       0.4102604   -0.6749317   -0.6133136
  Y      -0.3815253    0.4838127   -0.7876318
  Z       0.8283265    0.5571288   -0.0590143

Note: Tensor is right-handed


 Quadrupole tensor eigenvalues (in MHz;Q=-0.0430 I=  3.5)
  e**2qQ            =    -3.056655 MHz 
  e**2qQ/(4I*(2I-1))=    -0.036389 MHz 
  eta               =     0.349009
  NOTE: the diagonal representation of the SH term I*Q*I = e**2qQ/(4I(2I-1))*[-(1-eta),-(1+eta),2]

 RHO(0)=   8115.215574755 a.u.**-3


--------------------------------------------------------------------------------
----------------------------------------------------------------------------
                           ORCA EULER ANGLE PROGRAM
----------------------------------------------------------------------------

Only g-tensor available        -->  using g-tensor as reference tensor

Reference tensor               ...  g

g-tensor ordering              ...  |g_min> --> |gx>
                                    |g_mid> --> |gy>
                                    |g_max> --> |gz>

A- and EFG-tensor ordering     ...  the axes |Ax>, |Qx>, |Ay>, etc. are assigned
                                    such that the Euler rotation is minimal. You
                                    can find the respective eigenvalues as Ax,
                                    EFGx, Ay, etc. in the tables below.
                                    The relation of |Ax>, |Ay>,  etc. to Amin, Amid, etc.
                                    (as printed in the ORCA EPR/NMR CALCULATION Output)
                                    is obtained in the detailed printout.

Euler rotation around          ...  z - y - z
   First rotation              -->  by alpha around z
   Second rotation             -->  by beta around y'
   Third rotation              -->  by gamma around z''
   Positive / Negative angle   -->  clockwise / counterclockwise rotation

Plot EFG-tensors                    (-)
Plot HFC-tensors                    (-)
Detailed Printout                   (-)

-------------------------------------------------------------------------
          Euler rotation of hyperfine tensor to g-tensor
-------------------------------------------------------------------------

-------------------------------------------------------------------
 Atom  |   Alpha    Beta    Gamma   |   Ax       Ay       Az 
       |          [degrees]         |           [MHz]         
-------------------------------------------------------------------
 19H     -149.3     32.8   -169.4      -0.49     0.87    -0.52
 20H      -56.9     23.4     78.9      -0.29     0.47    -0.27
 21H       -7.0      5.0     38.0      -0.16     0.45    -0.16
 22H       -5.9      6.6     22.8      -0.22     0.43    -0.22
 23H      123.5     22.0   -101.5      -0.28     0.47    -0.27
 24H       27.9     33.3     13.1      -0.49     0.87    -0.52
 26H       68.9     20.5    -99.8      -0.26     0.52    -0.25
 27H      133.2     17.7   -177.9      -0.50     0.93    -0.54
 28H     -173.6      4.9    152.9      -0.21     0.48    -0.22
 29H     -179.1     23.5    144.5      -0.07     0.49    -0.07
 30H       39.2     17.3      5.7       0.93    -0.50    -0.54
 31H     -111.0     21.3     79.6      -0.26     0.52    -0.25
  0V      102.9      0.3   -106.0    -373.91   -84.63   -71.17
-------------------------------------------------------------------


-------------------------------------------------------------------------------
    Euler rotation of Electric Field Gradient (EFG) tensor to g-tensor
-------------------------------------------------------------------------------

-------------------------------------------------------------------
 Atom  |   Alpha    Beta    Gamma  |   EFGx     EFGy     EFGz
       |          [degrees]        |         [a.u.**-3]       
-------------------------------------------------------------------
 19H        7.9     40.4    -44.4     -0.14     0.28    -0.14
 20H       37.0     41.1    -72.9     -0.14    -0.15     0.28
 21H     -104.7      0.7     88.5      0.27    -0.14    -0.13
 22H     -122.7      0.7     90.5     -0.14     0.28    -0.13
 23H     -142.5     42.4    106.9     -0.14    -0.15     0.28
 24H     -170.7     41.3    134.6     -0.14     0.28    -0.14
 26H      -31.6     36.4     55.6     -0.14    -0.15     0.29
 27H      170.5     21.3   -141.8     -0.14     0.28    -0.14
 28H      -78.7      0.9    117.6     -0.14     0.27    -0.13
 29H      -95.6      0.8    117.9      0.27    -0.14    -0.13
 30H      -14.2     21.7     42.5     -0.14     0.28    -0.14
 31H      151.0     35.6   -126.6     -0.14    -0.15     0.29
  0V     -105.9      1.4    104.0      0.30    -0.20    -0.10
-------------------------------------------------------------------


Maximum memory used throughout the entire EPRNMR-calculation: 221.5 MB

Timings for individual modules:

Sum of individual times         ...     1662.556 sec (=  27.709 min)
GTO integral calculation        ...        1.379 sec (=   0.023 min)   0.1 %
Spin-Orbit-Coupling Matrices    ...        6.621 sec (=   0.110 min)   0.4 %
SCF iterations                  ...      126.203 sec (=   2.103 min)   7.6 %
EPR/NMR calculation             ...     1528.353 sec (=  25.473 min)  91.9 %
                             ****ORCA TERMINATED NORMALLY****
TOTAL RUN TIME: 0 days 0 hours 27 minutes 43 seconds 758 msec
