
                                 *****************
                                 * O   R   C   A *
                                 *****************

                                            #,                                       
                                            ###                                      
                                            ####                                     
                                            #####                                    
                                            ######                                   
                                           ########,                                 
                                     ,,################,,,,,                         
                               ,,#################################,,                 
                          ,,##########################################,,             
                       ,#########################################, ''#####,          
                    ,#############################################,,   '####,        
                  ,##################################################,,,,####,       
                ,###########''''           ''''###############################       
              ,#####''   ,,,,##########,,,,          '''####'''          '####       
            ,##' ,,,,###########################,,,                        '##       
           ' ,,###''''                  '''############,,,                           
         ,,##''                                '''############,,,,        ,,,,,,###''
      ,#''                                            '''#######################'''  
     '                                                          ''''####''''         
             ,#######,   #######,   ,#######,      ##                                
            ,#'     '#,  ##    ##  ,#'     '#,    #''#        ######   ,####,        
            ##       ##  ##   ,#'  ##            #'  '#       #        #'  '#        
            ##       ##  #######   ##           ,######,      #####,   #    #        
            '#,     ,#'  ##    ##  '#,     ,#' ,#      #,         ##   #,  ,#        
             '#######'   ##     ##  '#######'  #'      '#     #####' # '####'        



                  #######################################################
                  #                        -***-                        #
                  #          Department of theory and spectroscopy      #
                  #    Directorship and core code : Frank Neese         #
                  #        Max Planck Institute fuer Kohlenforschung    #
                  #                Kaiser Wilhelm Platz 1               #
                  #                 D-45470 Muelheim/Ruhr               #
                  #                      Germany                        #
                  #                                                     #
                  #                  All rights reserved                #
                  #                        -***-                        #
                  #######################################################


                         Program Version 5.0.4 -  RELEASE  -


 With contributions from (in alphabetic order):
   Daniel Aravena         : Magnetic Suceptibility
   Michael Atanasov       : Ab Initio Ligand Field Theory (pilot matlab implementation)
   Alexander A. Auer      : GIAO ZORA, VPT2 properties, NMR spectrum
   Ute Becker             : Parallelization
   Giovanni Bistoni       : ED, misc. LED, open-shell LED, HFLD
   Martin Brehm           : Molecular dynamics
   Dmytro Bykov           : SCF Hessian
   Vijay G. Chilkuri      : MRCI spin determinant printing, contributions to CSF-ICE
   Dipayan Datta          : RHF DLPNO-CCSD density
   Achintya Kumar Dutta   : EOM-CC, STEOM-CC
   Dmitry Ganyushin       : Spin-Orbit,Spin-Spin,Magnetic field MRCI
   Miquel Garcia          : C-PCM and meta-GGA Hessian, CC/C-PCM, Gaussian charge scheme
   Yang Guo               : DLPNO-NEVPT2, F12-NEVPT2, CIM, IAO-localization
   Andreas Hansen         : Spin unrestricted coupled pair/coupled cluster methods
   Benjamin Helmich-Paris : MC-RPA, TRAH-SCF, COSX integrals
   Lee Huntington         : MR-EOM, pCC
   Robert Izsak           : Overlap fitted RIJCOSX, COSX-SCS-MP3, EOM
   Marcus Kettner         : VPT2
   Christian Kollmar      : KDIIS, OOCD, Brueckner-CCSD(T), CCSD density, CASPT2, CASPT2-K
   Simone Kossmann        : Meta GGA functionals, TD-DFT gradient, OOMP2, MP2 Hessian
   Martin Krupicka        : Initial AUTO-CI
   Lucas Lang             : DCDCAS
   Marvin Lechner         : AUTO-CI (C++ implementation), FIC-MRCC
   Dagmar Lenk            : GEPOL surface, SMD
   Dimitrios Liakos       : Extrapolation schemes; Compound Job, initial MDCI parallelization
   Dimitrios Manganas     : Further ROCIS development; embedding schemes
   Dimitrios Pantazis     : SARC Basis sets
   Anastasios Papadopoulos: AUTO-CI, single reference methods and gradients
   Taras Petrenko         : DFT Hessian,TD-DFT gradient, ASA, ECA, R-Raman, ABS, FL, XAS/XES, NRVS
   Peter Pinski           : DLPNO-MP2, DLPNO-MP2 Gradient
   Christoph Reimann      : Effective Core Potentials
   Marius Retegan         : Local ZFS, SOC
   Christoph Riplinger    : Optimizer, TS searches, QM/MM, DLPNO-CCSD(T), (RO)-DLPNO pert. Triples
   Tobias Risthaus        : Range-separated hybrids, TD-DFT gradient, RPA, STAB
   Michael Roemelt        : Original ROCIS implementation
   Masaaki Saitow         : Open-shell DLPNO-CCSD energy and density
   Barbara Sandhoefer     : DKH picture change effects
   Avijit Sen             : IP-ROCIS
   Kantharuban Sivalingam : CASSCF convergence, NEVPT2, FIC-MRCI
   Bernardo de Souza      : ESD, SOC TD-DFT
   Georgi Stoychev        : AutoAux, RI-MP2 NMR, DLPNO-MP2 response
   Willem Van den Heuvel  : Paramagnetic NMR
   Boris Wezisla          : Elementary symmetry handling
   Frank Wennmohs         : Technical directorship


 We gratefully acknowledge several colleagues who have allowed us to
 interface, adapt or use parts of their codes:
   Stefan Grimme, W. Hujo, H. Kruse, P. Pracht,  : VdW corrections, initial TS optimization,
                  C. Bannwarth, S. Ehlert          DFT functionals, gCP, sTDA/sTD-DF
   Ed Valeev, F. Pavosevic, A. Kumar             : LibInt (2-el integral package), F12 methods
   Garnet Chan, S. Sharma, J. Yang, R. Olivares  : DMRG
   Ulf Ekstrom                                   : XCFun DFT Library
   Mihaly Kallay                                 : mrcc  (arbitrary order and MRCC methods)
   Jiri Pittner, Ondrej Demel                    : Mk-CCSD
   Frank Weinhold                                : gennbo (NPA and NBO analysis)
   Christopher J. Cramer and Donald G. Truhlar   : smd solvation model
   Lars Goerigk                                  : TD-DFT with DH, B97 family of functionals
   V. Asgeirsson, H. Jonsson                     : NEB implementation
   FAccTs GmbH                                   : IRC, NEB, NEB-TS, DLPNO-Multilevel, CI-OPT
                                                   MM, QMMM, 2- and 3-layer-ONIOM, Crystal-QMMM,
                                                   LR-CPCM, SF, NACMEs, symmetry and pop. for TD-DFT,
                                                   nearIR, NL-DFT gradient (VV10), updates on ESD,
                                                   ML-optimized integration grids
   S Lehtola, MJT Oliveira, MAL Marques          : LibXC Library
   Liviu Ungur et al                             : ANISO software


 Your calculation uses the libint2 library for the computation of 2-el integrals
 For citations please refer to: http://libint.valeyev.net

 Your ORCA version has been built with support for libXC version: 5.1.0
 For citations please refer to: https://tddft.org/programs/libxc/

 This ORCA versions uses:
   CBLAS   interface :  Fast vector & matrix operations
   LAPACKE interface :  Fast linear algebra routines
   SCALAPACK package :  Parallel linear algebra routines
   Shared memory     :  Shared parallel matrices
   BLAS/LAPACK       :  OpenBLAS 0.3.15  USE64BITINT DYNAMIC_ARCH NO_AFFINITY Prescott SINGLE_THREADED
        Core in use  :  Prescott
   Copyright (c) 2011-2014, The OpenBLAS Project


================================================================================

----- Orbital basis set information -----
Your calculation utilizes the basis: TZVP 

The basis set includes element-specific modifications.

Your calculation utilizes the basis: CP(PPP) 

----- AuxJ basis set information -----
Your calculation utilizes the auxiliary basis: def2/J
   F. Weigend, Phys. Chem. Chem. Phys. 8, 1057 (2006).

================================================================================
                                        WARNINGS
                       Please study these warnings very carefully!
================================================================================


WARNING: your system is open-shell and RHF/RKS was chosen
  ===> : WILL SWITCH to UHF/UKS


INFO   : the flag for use of the SHARK integral package has been found!

================================================================================
                                       INPUT FILE
================================================================================
NAME = input_70.inp
|  1> ! nofrozencore ReducedPop printbasis
|  2> ! B3LYP TZVP
|  3> 
|  4> %basis
|  5> newgto V "CP(PPP)" end
|  6> end
|  7> 
|  8> %pal
|  9> nprocs 8
| 10> end
| 11> 
| 12> % sym SymThresh 1e-2 end
| 13> * xyz -2 2 
| 14> V -0.7605669552409249 -0.6135041962144476 -0.5378426092815752
| 15> S 0.6396388020188224 0.48120616273488204 -2.225012565713258
| 16> S 1.1847525110721369 -2.035606412362327 -0.10125444698699981
| 17> S -1.6777393572028885 1.6386898556221015 -0.24528351174845847
| 18> S -1.1534767022887196 -0.896918722363904 1.8649013044065472
| 19> O -1.847773888170216 -1.489105133533149 -1.3128049253828777
| 20> C 0.8608670455012308 -2.731371351218787 1.4924282902552604
| 21> C -0.11337583244825461 -2.253975615491474 2.311504305809422
| 22> C -0.16660732391640512 2.028599941236429 -2.508476912379895
| 23> C -1.1329624786792634 2.511566941585873 -1.683395191917787
| 24> S 1.9411071442553285 -4.098890940702439 1.9543129438325375
| 25> S -0.423283083650758 -2.936897793903799 3.953815349800381
| 26> S -1.9321674874559753 4.107233814720433 -1.9477923961998875
| 27> S 0.4186024740569935 2.9325512655716635 -3.9566988938504535
| 28> C 1.092286902237625 -2.4517061297277 4.905425110748278
| 29> C -0.5631546740130449 5.308297000465448 -1.6466776766707543
| 30> C 2.9226965914196343 -3.3929102546022096 3.341433766311286
| 31> C 1.2759051570119446 4.390772744111915 -3.2155030916415326
| 32> C 2.301883236504379 -3.3986926737206726 4.716670755106674
| 33> H 3.4633294318372156 -2.456364471636656 2.9983399160407544
| 34> H 3.9859202725714846 -3.785018570358681 3.2555786133061795
| 35> H 3.07868445549826 -3.10120235730454 5.439821599651053
| 36> H 2.020240268904239 -4.429697036828523 4.957056044504674
| 37> H 0.7710137746995728 -2.7267195325603346 5.94452840449791
| 38> H 1.4283376954978595 -1.5211350761185438 4.37764059971758
| 39> C 0.38054972174508284 5.565687790648881 -2.818396877333411
| 40> H 1.9668379960992155 4.724500147980781 -3.99558175745848
| 41> H 1.8312147864022448 4.02448732064967 -2.349726175270178
| 42> H -0.2061342079059907 5.883302462179947 -3.6872178585202064
| 43> H 1.0337255184912792 6.41066777960061 -2.546479126588617
| 44> H -0.02401503838066159 4.974485402593126 -0.7564179285100794
| 45> H -1.0601308229321587 6.238879102254951 -1.3515432743799378
| 46> * 
| 47> 
| 48> % eprnmr
| 49> gtensor true
| 50> Nuclei = all H {aiso,adip,aorb,fgrad,rho}
| 51> Nuclei = all V {aiso,adip,aorb,fgrad,rho}
| 52> end
| 53> 
| 54>                          ****END OF INPUT****
================================================================================

------------------------------------------------------------------------------
                            SYMMETRY HANDLING SETUP
------------------------------------------------------------------------------

------------------
SYMMETRY DETECTION
------------------
The point group will now be determined using a tolerance of 1.0000e-02.
Splitting atom subsets according to nuclear charge, mass and basis set.
Splitting atom subsets according to distance from the molecule's center.
Identifying relative distance patterns of the atoms.
Splitting atom subsets according to atoms' relative distance patterns.
Bring atoms of each subset into input order.
The molecule is neither linear nor planar.
There is at least one atom subset not centered around the molecule's center.
The molecule does not have a center of inversion.
Analyzing the first atom subset for its symmetry.
The atom subset represents a 4-gon with alternating side lengths
that is not centered around the molecule's center.
Testing point group C2v.
Test failed.
Testing point group C2.
Test failed.
Testing point group Cs.
Test failed.
Testing point group Cs.
Test failed.
No testing is needed for point group C1.
This point group has been found:    C1
Largest non-degenerate subgroup:    C1


Mass-centered symmetry-perfected Cartesians (point group C1):

Atom          Symmetry-perfected Cartesians (x, y, z; au)
  0      -1.438755389986   -1.160706063036   -1.017364183071
  1       1.207250022375    0.907996711345   -4.205653342107
  2       2.237365644332   -3.848089785998   -0.192332123022
  3      -3.171960047285    3.095323895382   -0.464507610746
  4      -2.181247207255   -1.696281899833    3.523163783746
  5      -3.493278744123   -2.815352037173   -2.481830724612
  6       1.625310815645   -5.162894974021    2.819291794724
  7      -0.215741411603   -4.260747775994    4.367121146984
  8      -0.316334352178    3.832147174047   -4.741323326038
  9      -2.142480942783    4.744822536429   -3.182144836260
 10       3.666668761170   -7.747132480917    3.692127295446
 11      -0.801381243292   -5.551283663975    7.470639246842
 12      -3.652759534229    7.760195927623   -3.681783142927
 13       0.789551896879    5.540367615436   -7.478066252142
 14       2.062630966828   -4.634404296220    9.268921081399
 15      -1.065700242993   10.029876418216   -3.112758788125
 16       5.521603992258   -6.413022328350    6.313405764590
 17       2.409619181540    8.296006852479   -6.077409174355
 18       4.348436771187   -6.423949516876    8.912227042652
 19       6.543251999651   -4.643207286666    5.665052349346
 20       7.530805568735   -7.153999659963    6.151163038225
 21       5.816378335582   -5.861774291355   10.278784092355
 22       3.816208694878   -8.372265406027    9.366489406238
 23       1.455512741593   -5.154104310732   11.232541731442
 24       2.697674933177   -2.875879856744    8.271552897826
 25       0.717642616368   10.516274521057   -5.326987183234
 26       3.715293024348    8.926660249175   -7.551544215664
 27       3.459002300617    7.603827715287   -4.441327909342
 28      -0.391029337845   11.116479266366   -6.968820897082
 29       1.951965989524   12.113055288819   -4.813137103375
 30      -0.046873983705    9.399063917911   -1.430411676047
 31      -2.004849059541   11.788421735727   -2.555035595097


------------------
SYMMETRY REDUCTION
------------------
ORCA supports only abelian point groups.
It is now checked, if the determined point group is supported:
Point Group ( C1    ) is          ... supported

The point group is C1 - hence turning off symmetry
If this is a round-off problem, please increase the symmetry
        detection tolerance (%method SymThresh)

Storing the symmetry object:
Symmetry file                     ... input_70.sym.tmp
Writing symmetry information      ... done

                       ****************************
                       * Single Point Calculation *
                       ****************************

---------------------------------
CARTESIAN COORDINATES (ANGSTROEM)
---------------------------------
  V     -0.761357   -0.614219   -0.538366
  S      0.638849    0.480491   -2.225536
  S      1.183963   -2.036321   -0.101778
  S     -1.678529    1.637975   -0.245807
  S     -1.154266   -0.897634    1.864378
  O     -1.848563   -1.489820   -1.313328
  C      0.860077   -2.732086    1.491905
  C     -0.114165   -2.254691    2.310981
  C     -0.167397    2.027885   -2.509000
  C     -1.133752    2.510852   -1.683919
  S      1.940318   -4.099606    1.953790
  S     -0.424073   -2.937613    3.953292
  S     -1.932957    4.106519   -1.948316
  S      0.417813    2.931836   -3.957222
  C      1.091497   -2.452421    4.904902
  C     -0.563944    5.307582   -1.647201
  C      2.921907   -3.393625    3.340910
  C      1.275116    4.390058   -3.216026
  C      2.301094   -3.399408    4.716147
  H      3.462540   -2.457079    2.997817
  H      3.985131   -3.785734    3.255055
  H      3.077895   -3.101917    5.439298
  H      2.019451   -4.430412    4.956533
  H      0.770224   -2.727435    5.944005
  H      1.427548   -1.521850    4.377117
  C      0.379760    5.564973   -2.818920
  H      1.966048    4.723785   -3.996105
  H      1.830425    4.023772   -2.350250
  H     -0.206924    5.882587   -3.687741
  H      1.032936    6.409953   -2.547002
  H     -0.024805    4.973770   -0.756941
  H     -1.060920    6.238164   -1.352067

----------------------------
CARTESIAN COORDINATES (A.U.)
----------------------------
  NO LB      ZA    FRAG     MASS         X           Y           Z
   0 V    23.0000    0    50.940   -1.438755   -1.160706   -1.017364
   1 S    16.0000    0    32.060    1.207250    0.907997   -4.205653
   2 S    16.0000    0    32.060    2.237366   -3.848090   -0.192332
   3 S    16.0000    0    32.060   -3.171960    3.095324   -0.464508
   4 S    16.0000    0    32.060   -2.181247   -1.696282    3.523164
   5 O     8.0000    0    15.999   -3.493279   -2.815352   -2.481831
   6 C     6.0000    0    12.011    1.625311   -5.162895    2.819292
   7 C     6.0000    0    12.011   -0.215741   -4.260748    4.367121
   8 C     6.0000    0    12.011   -0.316334    3.832147   -4.741323
   9 C     6.0000    0    12.011   -2.142481    4.744823   -3.182145
  10 S    16.0000    0    32.060    3.666669   -7.747132    3.692127
  11 S    16.0000    0    32.060   -0.801381   -5.551284    7.470639
  12 S    16.0000    0    32.060   -3.652760    7.760196   -3.681783
  13 S    16.0000    0    32.060    0.789552    5.540368   -7.478066
  14 C     6.0000    0    12.011    2.062631   -4.634404    9.268921
  15 C     6.0000    0    12.011   -1.065700   10.029876   -3.112759
  16 C     6.0000    0    12.011    5.521604   -6.413022    6.313406
  17 C     6.0000    0    12.011    2.409619    8.296007   -6.077409
  18 C     6.0000    0    12.011    4.348437   -6.423950    8.912227
  19 H     1.0000    0     1.008    6.543252   -4.643207    5.665052
  20 H     1.0000    0     1.008    7.530806   -7.154000    6.151163
  21 H     1.0000    0     1.008    5.816378   -5.861774   10.278784
  22 H     1.0000    0     1.008    3.816209   -8.372265    9.366489
  23 H     1.0000    0     1.008    1.455513   -5.154104   11.232542
  24 H     1.0000    0     1.008    2.697675   -2.875880    8.271553
  25 C     6.0000    0    12.011    0.717643   10.516275   -5.326987
  26 H     1.0000    0     1.008    3.715293    8.926660   -7.551544
  27 H     1.0000    0     1.008    3.459002    7.603828   -4.441328
  28 H     1.0000    0     1.008   -0.391029   11.116479   -6.968821
  29 H     1.0000    0     1.008    1.951966   12.113055   -4.813137
  30 H     1.0000    0     1.008   -0.046874    9.399064   -1.430412
  31 H     1.0000    0     1.008   -2.004849   11.788422   -2.555036

--------------------------------
INTERNAL COORDINATES (ANGSTROEM)
--------------------------------
 V      0   0   0     0.000000000000     0.00000000     0.00000000
 S      1   0   0     2.450614085192     0.00000000     0.00000000
 S      1   2   0     2.448928696930    85.88683142     0.00000000
 S      1   2   3     2.449321148318    83.42132054   145.67945422
 S      1   2   3     2.451097749524   144.89789503    72.41812842
 O      1   2   3     1.596641007810   107.45030267   252.41551021
 C      3   1   2     1.768845756965   104.09843494   161.63194510
 C      7   3   1     1.359390081243   122.40880949   346.55191309
 C      2   1   3     1.767713878760   103.93578118   198.78677179
 C      9   2   1     1.359359869205   122.54156532    13.70547528
 S      7   3   1     1.802877126093   114.80115145   167.61271361
 S      8   7   3     1.805439218398   122.56606921   181.40275024
 S     10   9   2     1.804102906628   122.69783745   178.57695397
 S      9   2   1     1.804700920382   114.78676369   192.41817288
 C     12   8   7     1.854164089352   103.15397988    68.01967507
 C     13  10   9     1.845919536123   102.88741543   292.77252298
 C     11   7   3     1.840117047387   102.81082954   112.41848316
 C     14   9   2     1.846821319968   102.94168342   248.71437029
 C     17  11   7     1.508880191852   117.78189176    82.44227426
 H     17  11   7     1.134511023226   110.05659930   302.64879931
 H     17  11   7     1.136470252468   108.04346530   217.63464422
 H     19  17  11     1.102210400131   107.87716269   170.72100492
 H     19  17  11     1.095480645792   108.02211754    55.45974113
 H     15  12   8     1.121866502440   100.20325755   170.10631014
 H     15  12   8     1.121360384332   102.74146392    27.34244505
 C     16  13  10     1.526353134319   116.29772999    82.69947083
 H     18  14   9     1.094205142140   104.34857808   157.78690548
 H     18  14   9     1.091834907326   106.82501508    40.98044615
 H     26  16  13     1.095411799386   109.06394316    55.27782492
 H     26  16  13     1.102074891445   107.83780436   171.02692735
 H     16  13  10     1.093006929886   107.45610601   316.53304816
 H     16  13  10     1.095478277366   105.08261150   204.74856856

---------------------------
INTERNAL COORDINATES (A.U.)
---------------------------
 V      0   0   0     0.000000000000     0.00000000     0.00000000
 S      1   0   0     4.630989480942     0.00000000     0.00000000
 S      1   2   0     4.627804558697    85.88683142     0.00000000
 S      1   2   3     4.628546184343    83.42132054   145.67945422
 S      1   2   3     4.631903474072   144.89789503    72.41812842
 O      1   2   3     3.017214238949   107.45030267   252.41551021
 C      3   1   2     3.342634053813   104.09843494   161.63194510
 C      7   3   1     2.568874962718   122.40880949   346.55191309
 C      2   1   3     3.340495113989   103.93578118   198.78677179
 C      9   2   1     2.568817870240   122.54156532    13.70547528
 S      7   3   1     3.406944021426   114.80115145   167.61271361
 S      8   7   3     3.411785674213   122.56606921   181.40275024
 S     10   9   2     3.409260410939   122.69783745   178.57695397
 S      9   2   1     3.410390493157   114.78676369   192.41817288
 C     12   8   7     3.503862336227   103.15397988    68.01967507
 C     13  10   9     3.488282388527   102.88741543   292.77252298
 C     11   7   3     3.477317273922   102.81082954   112.41848316
 C     14   9   2     3.489986513027   102.94168342   248.71437029
 C     17  11   7     2.851370331499   117.78189176    82.44227426
 H     17  11   7     2.143915129812   110.05659930   302.64879931
 H     17  11   7     2.147617536513   108.04346530   217.63464422
 H     19  17  11     2.082875798207   107.87716269   170.72100492
 H     19  17  11     2.070158405558   108.02211754    55.45974113
 H     15  12   8     2.120020448432   100.20325755   170.10631014
 H     15  12   8     2.119064023817   102.74146392    27.34244505
 C     16  13  10     2.884389407516   116.29772999    82.69947083
 H     18  14   9     2.067748052972   104.34857808   157.78690548
 H     18  14   9     2.063268958302   106.82501508    40.98044615
 H     26  16  13     2.070028304704   109.06394316    55.27782492
 H     26  16  13     2.082619723902   107.83780436   171.02692735
 H     16  13  10     2.065483759963   107.45610601   316.53304816
 H     16  13  10     2.070153929882   105.08261150   204.74856856

---------------------
BASIS SET INFORMATION
---------------------
There are 5 groups of distinct atoms

 Group   1 Type V   : 17s11p5d1f contracted to 17s7p3d1f pattern {11111111111111111/3311111/311/1}
 Group   2 Type S   : 14s9p1d contracted to 5s4p1d pattern {73211/6111/1}
 Group   3 Type O   : 11s6p1d contracted to 5s3p1d pattern {62111/411/1}
 Group   4 Type C   : 11s6p1d contracted to 5s3p1d pattern {62111/411/1}
 Group   5 Type H   : 5s1p contracted to 3s1p pattern {311/1}

Atom   0V    basis set group =>   1
Atom   1S    basis set group =>   2
Atom   2S    basis set group =>   2
Atom   3S    basis set group =>   2
Atom   4S    basis set group =>   2
Atom   5O    basis set group =>   3
Atom   6C    basis set group =>   4
Atom   7C    basis set group =>   4
Atom   8C    basis set group =>   4
Atom   9C    basis set group =>   4
Atom  10S    basis set group =>   2
Atom  11S    basis set group =>   2
Atom  12S    basis set group =>   2
Atom  13S    basis set group =>   2
Atom  14C    basis set group =>   4
Atom  15C    basis set group =>   4
Atom  16C    basis set group =>   4
Atom  17C    basis set group =>   4
Atom  18C    basis set group =>   4
Atom  19H    basis set group =>   5
Atom  20H    basis set group =>   5
Atom  21H    basis set group =>   5
Atom  22H    basis set group =>   5
Atom  23H    basis set group =>   5
Atom  24H    basis set group =>   5
Atom  25C    basis set group =>   4
Atom  26H    basis set group =>   5
Atom  27H    basis set group =>   5
Atom  28H    basis set group =>   5
Atom  29H    basis set group =>   5
Atom  30H    basis set group =>   5
Atom  31H    basis set group =>   5

-------------------------
BASIS SET IN INPUT FORMAT
-------------------------

 # Basis set for element : H 
 NewGTO H 
 S 3 
   1      34.0613410000      0.0254393168
   2       5.1235746000      0.1900859340
   3       1.1646626000      0.8524411390
 S 1 
   1       0.3272304100      1.0000000000
 S 1 
   1       0.1030724100      1.0000000000
 P 1 
   1       0.8000000000      1.0000000000
  end;

 # Basis set for element : C 
 NewGTO C 
 S 6 
   1   13575.3496820000      0.0006064601
   2    2035.2333680000      0.0046978985
   3     463.2256235900      0.0243324735
   4     131.2001959800      0.0973999560
   5      42.8530158900      0.3019558443
   6      15.5841857700      0.6623361013
 S 2 
   1       6.2067138500      0.6559530795
   2       2.5764896500      0.3758563390
 S 1 
   1       0.5769633900      1.0000000000
 S 1 
   1       0.2297283100      1.0000000000
 S 1 
   1       0.0951644400      1.0000000000
 P 4 
   1      34.6972322400      0.0113272290
   2       7.9582622800      0.0761696612
   3       2.3780826900      0.3019225154
   4       0.8143320800      0.7278502776
 P 1 
   1       0.2888754700      1.0000000000
 P 1 
   1       0.1005682400      1.0000000000
 D 1 
   1       0.8000000000      1.0000000000
  end;

 # Basis set for element : O 
 NewGTO O 
 S 6 
   1   27032.3826310000      0.0005722654
   2    4052.3871392000      0.0044353333
   3     922.3272271000      0.0230201034
   4     261.2407098900      0.0928224938
   5      85.3546413500      0.2937849971
   6      31.0350352400      0.6740160462
 S 2 
   1      12.2608607300      0.6383993750
   2       4.9987076000      0.3953458663
 S 1 
   1       1.1703108200      1.0000000000
 S 1 
   1       0.4647474100      1.0000000000
 S 1 
   1       0.1850453600      1.0000000000
 P 4 
   1      63.2749548000      0.0120183316
   2      14.6270493800      0.0830054304
   3       4.4501223500      0.3199174388
   4       1.5275799600      0.7071554258
 P 1 
   1       0.5293511800      1.0000000000
 P 1 
   1       0.1747842100      1.0000000000
 D 1 
   1       1.2000000000      1.0000000000
  end;

 # Basis set for element : S 
 NewGTO S 
 S 7 
   1   60700.9281040000      0.0005238013
   2    9102.6106854000      0.0040506304
   3    2071.4166009000      0.0208270003
   4     586.0247682100      0.0814968475
   5     190.5539502100      0.2374911358
   6      67.6303842600      0.4472617145
   7      25.1273069100      0.3489191913
 S 3 
   1     112.5746301000      0.1004556993
   2      34.7955542200      0.4339117282
   3       6.5115556200     -1.2084330582
 S 2 
   1       3.2399032300      0.6749812922
   2       1.5477160900      0.3470879597
 S 1 
   1       0.4054103000      1.0000000000
 S 1 
   1       0.1455065100      1.0000000000
 P 6 
   1     564.3671602700      0.0025564845
   2     133.4262437900      0.0202874255
   3      42.4682711900      0.0927670112
   4      15.6165275800      0.2650208365
   5       6.1093988500      0.4486298663
   6       2.4404160200      0.3596369916
 P 1 
   1       0.8388220100      1.0000000000
 P 1 
   1       0.3128874700      1.0000000000
 P 1 
   1       0.1077010900      1.0000000000
 D 1 
   1       0.5500000000      1.0000000000
  end;

 # Basis set for element : V 
 NewGTO V 
 S 1 
   1  4239814.9912500000      1.0000000000
 S 1 
   1  1695925.9965000001      1.0000000000
 S 1 
   1  678370.3986000001      1.0000000000
 S 1 
   1  271348.1594400000      1.0000000000
 S 1 
   1   40672.0050780000      1.0000000000
 S 1 
   1    9257.0761385000      1.0000000000
 S 1 
   1    2622.7328773000      1.0000000000
 S 1 
   1     858.5948018500      1.0000000000
 S 1 
   1     314.1941865000      1.0000000000
 S 1 
   1     124.4786212700      1.0000000000
 S 1 
   1      50.4693993090      1.0000000000
 S 1 
   1      12.5138469110      1.0000000000
 S 1 
   1       5.3447758082      1.0000000000
 S 1 
   1       1.5755631295      1.0000000000
 S 1 
   1       0.6306903307      1.0000000000
 S 1 
   1       0.0879544416      1.0000000000
 S 1 
   1       0.0342969197      1.0000000000
 P 3 
   1    1450.0319327000     -0.0222847647
   2     343.7504988400     -0.1817959329
   3     110.8252170800     -0.8607412073
 P 3 
   1      41.8224645460     -0.2522537814
   2      17.0880737100     -0.4620379520
   3       7.2613218939     -0.3990010670
 P 1 
   1       2.9458145262      1.0000000000
 P 1 
   1       1.1650209680      1.0000000000
 P 1 
   1       0.4339937839      1.0000000000
 D 3 
   1      27.3603358640      0.0575501019
   2       7.4542765527      0.3023798347
   3       2.4632270217      0.7724212088
 D 1 
   1       0.8249954244      1.0000000000
 D 1 
   1       0.2526297057      1.0000000000
 P 1 
   1       0.1112480000      1.0000000000
 P 1 
   1       0.0363780000      1.0000000000
 F 1 
   1       1.8000000000      1.0000000000
  end;

---------------------------------
AUXILIARY/J BASIS SET INFORMATION
---------------------------------
There are 5 groups of distinct atoms

 Group   1 Type V   : 19s5p5d3f3g contracted to 8s5p5d2f3g pattern {121111111/11111/11111/21/111}
 Group   2 Type S   : 14s5p5d2f1g contracted to 8s4p3d1f1g pattern {71111111/2111/311/2/1}
 Group   3 Type O   : 12s5p4d2f1g contracted to 6s4p3d1f1g pattern {711111/2111/211/2/1}
 Group   4 Type C   : 12s5p4d2f1g contracted to 6s4p3d1f1g pattern {711111/2111/211/2/1}
 Group   5 Type H   : 5s2p1d contracted to 3s1p1d pattern {311/2/1}

Atom   0V    basis set group =>   1
Atom   1S    basis set group =>   2
Atom   2S    basis set group =>   2
Atom   3S    basis set group =>   2
Atom   4S    basis set group =>   2
Atom   5O    basis set group =>   3
Atom   6C    basis set group =>   4
Atom   7C    basis set group =>   4
Atom   8C    basis set group =>   4
Atom   9C    basis set group =>   4
Atom  10S    basis set group =>   2
Atom  11S    basis set group =>   2
Atom  12S    basis set group =>   2
Atom  13S    basis set group =>   2
Atom  14C    basis set group =>   4
Atom  15C    basis set group =>   4
Atom  16C    basis set group =>   4
Atom  17C    basis set group =>   4
Atom  18C    basis set group =>   4
Atom  19H    basis set group =>   5
Atom  20H    basis set group =>   5
Atom  21H    basis set group =>   5
Atom  22H    basis set group =>   5
Atom  23H    basis set group =>   5
Atom  24H    basis set group =>   5
Atom  25C    basis set group =>   4
Atom  26H    basis set group =>   5
Atom  27H    basis set group =>   5
Atom  28H    basis set group =>   5
Atom  29H    basis set group =>   5
Atom  30H    basis set group =>   5
Atom  31H    basis set group =>   5

-------------------------------------
AUXILIARY/J BASIS SET IN INPUT FORMAT
-------------------------------------

 # Auxiliary/J basis set for element : H 
 NewAuxJGTO H 
 S 3 
   1      15.6752927000      0.1007184237
   2       3.6063578000      0.3404257499
   3       1.2080016000      0.6491996172
 S 1 
   1       0.4726794000      1.0000000000
 S 1 
   1       0.2018100000      1.0000000000
 P 2 
   1       2.0281365000      0.5596620919
   2       0.5358730000      0.5596620919
 D 1 
   1       2.2165124000      1.0000000000
  end;

 # Auxiliary/J basis set for element : C 
 NewAuxJGTO C 
 S 7 
   1    1861.0916331000      0.0134602335
   2     642.9939764000      0.0299160374
   3     235.1105725000      0.1008649584
   4      90.7028894000      0.2370970548
   5      36.7794552000      0.3924037254
   6      15.6046273000      0.3195862154
   7       6.8907294000      0.0530104441
 S 1 
   1       3.1478850000     -1.0000000000
 S 1 
   1       1.4777287000      1.0000000000
 S 1 
   1       0.7076466000      1.0000000000
 S 1 
   1       0.3430122000      1.0000000000
 S 1 
   1       0.1669453000      1.0000000000
 P 2 
   1      13.5472892000     -0.6769313712
   2       5.4669419000     -0.3779500978
 P 1 
   1       2.1751721000      1.0000000000
 P 1 
   1       0.8582194000      1.0000000000
 P 1 
   1       0.3376720000      1.0000000000
 D 2 
   1       5.9287253000     -0.3533329857
   2       1.9809209000     -0.7456525731
 D 1 
   1       0.8055417000     -1.0000000000
 D 1 
   1       0.3531244000     -1.0000000000
 F 2 
   1       1.6755626000      0.6311076882
   2       0.5997536000      0.4968166032
 G 1 
   1       1.0024600000     -1.0000000000
  end;

 # Auxiliary/J basis set for element : O 
 NewAuxJGTO O 
 S 7 
   1    2876.8216605000      0.0168151159
   2    1004.7443032000      0.0340137548
   3     369.7579954000      0.1194951309
   4     142.9442404000      0.2664627624
   5      57.8366425000      0.4202764046
   6      24.3864983000      0.2765077335
   7      10.6622662000      0.0057008815
 S 1 
   1       4.8070437000     -1.0000000000
 S 1 
   1       2.2210770000      1.0000000000
 S 1 
   1       1.0447795000      1.0000000000
 S 1 
   1       0.4968425000      1.0000000000
 S 1 
   1       0.2371384000      1.0000000000
 P 2 
   1      64.2613382000     -0.2731534179
   2      16.3006076000     -0.8168011598
 P 1 
   1       4.3550542000      1.0000000000
 P 1 
   1       1.2019554000      1.0000000000
 P 1 
   1       0.3354196000      1.0000000000
 D 2 
   1       9.2146611000     -0.4661230638
   2       2.8435251000     -0.6600908911
 D 1 
   1       0.9955759000     -1.0000000000
 D 1 
   1       0.3649441000     -1.0000000000
 F 2 
   1       2.6420115000      0.5931563945
   2       0.7345613000      0.5931563945
 G 1 
   1       1.3931000000     -1.0000000000
  end;

 # Auxiliary/J basis set for element : S 
 NewAuxJGTO S 
 S 7 
   1    7399.0303145000      0.0295137551
   2    2710.1675859000      0.0559686311
   3    1034.3279062000      0.1764696370
   4     410.4645411000      0.3577969368
   5     168.9762502000      0.4299293578
   6      71.9687889000      0.1259148089
   7      31.6172683000     -0.0646025788
 S 1 
   1      14.2796836000      1.0000000000
 S 1 
   1       6.6060948000      1.0000000000
 S 1 
   1       3.1181477000      1.0000000000
 S 1 
   1       1.4954039000     -1.0000000000
 S 1 
   1       0.7254779000      1.0000000000
 S 1 
   1       0.3544216000      1.0000000000
 S 1 
   1       0.1735525000      1.0000000000
 P 2 
   1      12.6998799000      1.4059102813
   2       4.4295784000     -1.2124994202
 P 1 
   1       1.5232889000      1.0000000000
 P 1 
   1       0.5194667000     -1.0000000000
 P 1 
   1       0.1766547000     -1.0000000000
 D 3 
   1      16.8546461000      1.0295742104
   2       5.0810461000     -0.7461553923
   3       1.5102323000      0.8357028005
 D 1 
   1       0.4451331000      1.0000000000
 D 1 
   1       0.1308362000      1.0000000000
 F 2 
   1       1.0809860000      0.5572698934
   2       0.4161474000      0.5572698934
 G 1 
   1       0.6707100000     -1.0000000000
  end;

 # Auxiliary/J basis set for element : V 
 NewAuxJGTO V 
 S 12 
   1   11942.0842430000      0.0459866720
   2    2430.7110193000      0.1744615821
   3     841.0764301000      0.2900402792
   4     494.7508273000      0.1411212903
   5     291.0298903000      0.2660697186
   6     171.1940483000      0.0446365706
   7      59.2366916000     -0.0408204801
   8      34.8451117000      0.1394665381
   9      20.4971240000      0.2164746715
  10      12.0571314000      0.0864266611
  11       7.0924300000     -0.0568501658
  12       4.1720176000     -0.0126212852
 S 1 
   1       2.4541279000      1.0000000000
 S 1 
   1       1.4436046000      1.0000000000
 S 1 
   1       0.8491792000      1.0000000000
 S 1 
   1       0.2938336000      1.0000000000
 S 1 
   1       0.1728433000      1.0000000000
 S 1 
   1       0.1016725000      1.0000000000
 S 1 
   1       0.0598074000      1.0000000000
 P 1 
   1      16.7130979000     -1.0000000000
 P 1 
   1       4.7454037000     -1.0000000000
 P 1 
   1       1.3889998000      1.0000000000
 P 1 
   1       0.4142440000     -1.0000000000
 P 1 
   1       0.1243234000      1.0000000000
 D 1 
   1       7.7143225000      1.0000000000
 D 1 
   1       3.1170731000      1.0000000000
 D 1 
   1       1.2767950000     -1.0000000000
 D 1 
   1       0.5273386000      1.0000000000
 D 1 
   1       0.2184050000      1.0000000000
 F 2 
   1       3.1309344000     -1.0825667766
   2       1.0419780000      0.1809223232
 F 1 
   1       0.3559044000      1.0000000000
 G 1 
   1       8.7130110000      1.0000000000
 G 1 
   1       2.7493872000      1.0000000000
 G 1 
   1       0.8775089000      1.0000000000
  end;



           ************************************************************
           *        Program running with 8 parallel MPI-processes     *
           *              working on a common directory               *
           ************************************************************
------------------------------------------------------------------------------
                           ORCA GTO INTEGRAL CALCULATION
                           -- RI-GTO INTEGRALS CHOSEN --
------------------------------------------------------------------------------
------------------------------------------------------------------------------
                   ___                                                        
                  /   \      - P O W E R E D   B Y -                         
                 /     \                                                     
                 |  |  |   _    _      __       _____    __    __             
                 |  |  |  | |  | |    /  \     |  _  \  |  |  /  |          
                  \  \/   | |  | |   /    \    | | | |  |  | /  /          
                 / \  \   | |__| |  /  /\  \   | |_| |  |  |/  /          
                |  |  |   |  __  | /  /__\  \  |    /   |      \           
                |  |  |   | |  | | |   __   |  |    \   |  |\   \          
                \     /   | |  | | |  |  |  |  | |\  \  |  | \   \       
                 \___/    |_|  |_| |__|  |__|  |_| \__\ |__|  \__/        
                                                                              
                      - O R C A' S   B I G   F R I E N D -                    
                                      &                                       
                       - I N T E G R A L  F E E D E R -                       
                                                                              
 v1 FN, 2020, v2 2021                                                         
------------------------------------------------------------------------------


Reading SHARK input file input_70.SHARKINP.tmp ... ok
----------------------
SHARK INTEGRAL PACKAGE
----------------------

Number of atoms                             ...     32
Number of basis functions                   ...    517
Number of shells                            ...    255
Maximum angular momentum                    ...      3
Integral batch strategy                     ... SHARK/LIBINT Hybrid
RI-J (if used) integral strategy            ... SPLIT-RIJ (Revised 2003 algorithm where possible)
Printlevel                                  ...      1
Contraction scheme used                     ... SEGMENTED contraction
Coulomb Range Separation                    ... NOT USED
Exchange Range Separation                   ... NOT USED
Finite Nucleus Model                        ... NOT USED
Auxiliary Coulomb fitting basis             ... AVAILABLE
   # of basis functions in Aux-J            ...   1168
   # of shells in Aux-J                     ...    384
   Maximum angular momentum in Aux-J        ...      4
Auxiliary J/K fitting basis                 ... NOT available
Auxiliary Correlation fitting basis         ... NOT available
Auxiliary 'external' fitting basis          ... NOT available
Integral threshold                          ...     1.000000e-10
Primitive cut-off                           ...     1.000000e-11
Primitive pair pre-selection threshold      ...     1.000000e-11

Calculating pre-screening integrals         ... done (  0.1 sec) Dimension = 255
Organizing shell pair data                  ... done (  0.1 sec)
Shell pair information
Total number of shell pairs                 ...     32640
Shell pairs after pre-screening             ...     17830
Total number of primitive shell pairs       ...    123863
Primitive shell pairs kept                  ...     41692
          la=0 lb=0:   5380 shell pairs
          la=1 lb=0:   7065 shell pairs
          la=1 lb=1:   2298 shell pairs
          la=2 lb=0:   1675 shell pairs
          la=2 lb=1:   1120 shell pairs
          la=2 lb=2:    154 shell pairs
          la=3 lb=0:     73 shell pairs
          la=3 lb=1:     52 shell pairs
          la=3 lb=2:     12 shell pairs
          la=3 lb=3:      1 shell pairs

Calculating one electron integrals          ... done (  0.0 sec)
Calculating RI/J V-Matrix + Cholesky decomp.... done (  0.1 sec)
Calculating Nuclear repulsion               ... done (  0.0 sec) ENN=   3211.739742670996 Eh

SHARK setup successfully completed in   0.5 seconds

Maximum memory used throughout the entire GTOINT-calculation: 31.6 MB


           ************************************************************
           *        Program running with 8 parallel MPI-processes     *
           *              working on a common directory               *
           ************************************************************
-------------------------------------------------------------------------------
                                 ORCA SCF
-------------------------------------------------------------------------------

------------
SCF SETTINGS
------------
Hamiltonian:
 Density Functional     Method          .... DFT(GTOs)
 Exchange Functional    Exchange        .... B88
   X-Alpha parameter    XAlpha          ....  0.666667
   Becke's b parameter  XBeta           ....  0.004200
 Correlation Functional Correlation     .... LYP
 LDA part of GGA corr.  LDAOpt          .... VWN-5
 Gradients option       PostSCFGGA      .... off
 Hybrid DFT is turned on
   Fraction HF Exchange ScalHFX         ....  0.200000
   Scaling of DF-GGA-X  ScalDFX         ....  0.720000
   Scaling of DF-GGA-C  ScalDFC         ....  0.810000
   Scaling of DF-LDA-C  ScalLDAC        ....  1.000000
   Perturbative correction              ....  0.000000
   Density functional embedding theory  .... OFF
   NL short-range parameter             ....  4.800000
 RI-approximation to the Coulomb term is turned on
   Number of AuxJ basis functions       .... 1168
   RIJ-COSX (HFX calculated with COS-X)).... on


General Settings:
 Integral files         IntName         .... input_70
 Hartree-Fock type      HFTyp           .... UHF
 Total Charge           Charge          ....   -2
 Multiplicity           Mult            ....    2
 Number of Electrons    NEL             ....  233
 Basis Dimension        Dim             ....  517
 Nuclear Repulsion      ENuc            ....   3211.7397426710 Eh

Convergence Acceleration:
 DIIS                   CNVDIIS         .... on
   Start iteration      DIISMaxIt       ....    12
   Startup error        DIISStart       ....  0.200000
   # of expansion vecs  DIISMaxEq       ....     5
   Bias factor          DIISBfac        ....   1.050
   Max. coefficient     DIISMaxC        ....  10.000
 Trust-Rad. Augm. Hess. CNVTRAH         .... auto
   Auto Start mean grad. ratio tolernc. ....  1.125000
   Auto Start start iteration           ....    20
   Auto Start num. interpolation iter.  ....    10
   Max. Number of Micro iterations      ....    16
   Max. Number of Macro iterations      .... Maxiter - #DIIS iter
   Number of Davidson start vectors     ....     2
   Converg. threshold I  (grad. norm)   ....   5.000e-05
   Converg. threshold II (energy diff.) ....   1.000e-06
   Grad. Scal. Fac. for Micro threshold ....   0.100
   Minimum threshold for Micro iter.    ....   0.010
   NR start threshold (gradient norm)   ....   0.001
   Initial trust radius                 ....   0.400
   Minimum AH scaling param. (alpha)    ....   1.000
   Maximum AH scaling param. (alpha)    .... 1000.000
   Orbital update algorithm             .... Taylor
   White noise on init. David. guess    .... on
   Maximum white noise                  ....   0.010
   Quad. conv. algorithm                .... NR
 SOSCF                  CNVSOSCF        .... off
 Level Shifting         CNVShift        .... on
   Level shift para.    LevelShift      ....    0.2500
   Turn off err/grad.   ShiftErr        ....    0.0010
 Zerner damping         CNVZerner       .... off
 Static damping         CNVDamp         .... on
   Fraction old density DampFac         ....    0.7000
   Max. Damping (<1)    DampMax         ....    0.9800
   Min. Damping (>=0)   DampMin         ....    0.0000
   Turn off err/grad.   DampErr         ....    0.1000
 Fernandez-Rico         CNVRico         .... off

SCF Procedure:
 Maximum # iterations   MaxIter         ....   125
 SCF integral mode      SCFMode         .... Direct
   Integral package                     .... SHARK and LIBINT hybrid scheme
 Reset frequency        DirectResetFreq ....    20
 Integral Threshold     Thresh          ....  1.000e-10 Eh
 Primitive CutOff       TCut            ....  1.000e-11 Eh

Convergence Tolerance:
 Convergence Check Mode ConvCheckMode   .... Total+1el-Energy
 Convergence forced     ConvForced      .... 0
 Energy Change          TolE            ....  1.000e-06 Eh
 1-El. energy change                    ....  1.000e-03 Eh
 DIIS Error             TolErr          ....  1.000e-06


Diagonalization of the overlap matrix:
Smallest eigenvalue                        ... 1.836e-04
Time for diagonalization                   ...    0.111 sec
Threshold for overlap eigenvalues          ... 1.000e-08
Number of eigenvalues below threshold      ... 0
Time for construction of square roots      ...    0.098 sec
Total time needed                          ...    0.213 sec

Time for model grid setup =    0.266 sec

------------------------------
INITIAL GUESS: MODEL POTENTIAL
------------------------------
Loading Hartree-Fock densities                     ... done
Calculating cut-offs                               ... done
Initializing the effective Hamiltonian             ... done
Setting up the integral package (SHARK)            ... done
Starting the Coulomb interaction                   ... done (   0.2 sec)
Reading the grid                                   ... done
Mapping shells                                     ... done
Starting the XC term evaluation                    ... done (   0.1 sec)
  promolecular density results
     # of electrons  =    230.996250148
     EX              =   -307.537636534
     EC              =     -9.026577291
     EX+EC           =   -316.564213825
Transforming the Hamiltonian                       ... done (   0.1 sec)
Diagonalizing the Hamiltonian                      ... done (   0.1 sec)
Back transforming the eigenvectors                 ... done (   0.0 sec)
Now organizing SCF variables                       ... done
                      ------------------
                      INITIAL GUESS DONE (   0.8 sec)
                      ------------------
-------------------
DFT GRID GENERATION
-------------------

General Integration Accuracy     IntAcc      ... 4.388
Radial Grid Type                 RadialGrid  ... OptM3 with GC (2021)
Angular Grid (max. ang.)         AngularGrid ... 4 (Lebedev-302)
Angular grid pruning method      GridPruning ... 4 (adaptive)
Weight generation scheme         WeightScheme... Becke
Basis function cutoff            BFCut       ... 1.0000e-10
Integration weight cutoff        WCut        ... 1.0000e-14
Angular grids for H and He will be reduced by one unit
Partially contracted basis set               ... off
Rotationally invariant grid construction     ... off

Total number of grid points                  ...   184197
Total number of batches                      ...     2895
Average number of points per batch           ...       63
Average number of grid points per atom       ...     5756
Time for grid setup =    1.332 sec

--------------------
COSX GRID GENERATION
--------------------

GRIDX 1
-------
General Integration Accuracy     IntAcc      ... 3.816
Radial Grid Type                 RadialGrid  ... OptM3 with GC (2021)
Angular Grid (max. ang.)         AngularGrid ... 1 (Lebedev-50)
Angular grid pruning method      GridPruning ... 4 (adaptive)
Weight generation scheme         WeightScheme... Becke
Basis function cutoff            BFCut       ... 1.0000e-10
Integration weight cutoff        WCut        ... 1.0000e-14
Angular grids for H and He will be reduced by one unit
Partially contracted basis set               ... on
Rotationally invariant grid construction     ... off

Total number of grid points                  ...    22845
Total number of batches                      ...      377
Average number of points per batch           ...       60
Average number of grid points per atom       ...      714
UseSFitting                                  ... on

GRIDX 2
-------
General Integration Accuracy     IntAcc      ... 4.020
Radial Grid Type                 RadialGrid  ... OptM3 with GC (2021)
Angular Grid (max. ang.)         AngularGrid ... 2 (Lebedev-110)
Angular grid pruning method      GridPruning ... 4 (adaptive)
Weight generation scheme         WeightScheme... Becke
Basis function cutoff            BFCut       ... 1.0000e-10
Integration weight cutoff        WCut        ... 1.0000e-14
Angular grids for H and He will be reduced by one unit
Partially contracted basis set               ... on
Rotationally invariant grid construction     ... off

Total number of grid points                  ...    49210
Total number of batches                      ...      787
Average number of points per batch           ...       62
Average number of grid points per atom       ...     1538
UseSFitting                                  ... on

GRIDX 3
-------
General Integration Accuracy     IntAcc      ... 4.338
Radial Grid Type                 RadialGrid  ... OptM3 with GC (2021)
Angular Grid (max. ang.)         AngularGrid ... 3 (Lebedev-194)
Angular grid pruning method      GridPruning ... 4 (adaptive)
Weight generation scheme         WeightScheme... Becke
Basis function cutoff            BFCut       ... 1.0000e-10
Integration weight cutoff        WCut        ... 1.0000e-14
Angular grids for H and He will be reduced by one unit
Partially contracted basis set               ... on
Rotationally invariant grid construction     ... off

Total number of grid points                  ...   112234
Total number of batches                      ...     1771
Average number of points per batch           ...       63
Average number of grid points per atom       ...     3507
UseSFitting                                  ... on

Time for X-Grid setup             =    1.278 sec

--------------
SCF ITERATIONS
--------------
ITER       Energy         Delta-E        Max-DP      RMS-DP      [F,P]     Damp
               ***  Starting incremental Fock matrix formation  ***
  0  -4591.9769339957   0.000000000000 0.07751379  0.00092344  0.2236712 0.7000
  1  -4592.2608590750  -0.283925079290 0.12384978  0.00092958  0.1560065 0.7000
                               ***Turning on DIIS***
  2  -4592.4065388836  -0.145679808576 0.08823888  0.00058595  0.1091635 0.7000
  3  -4592.4866535172  -0.080114633573 0.11963194  0.00091024  0.0772160 0.0000
  4  -4592.6763355617  -0.189682044482 0.07592740  0.00050363  0.0142768 0.0000
  5  -4592.6818897689  -0.005554207246 0.01317134  0.00010480  0.0099596 0.0000
  6  -4592.6830445937  -0.001154824822 0.00222855  0.00004424  0.0023323 0.0000
  7  -4592.6832387565  -0.000194162792 0.00140237  0.00002196  0.0012589 0.0000
  8  -4592.6833025745  -0.000063817969 0.00152450  0.00001596  0.0011230 0.0000
  9  -4592.6833381776  -0.000035603121 0.00292817  0.00002285  0.0007263 0.0000
               *** Restarting incremental Fock matrix formation ***
                                   *** Resetting DIIS ***
 10  -4592.6834137674  -0.000075589769 0.00141959  0.00001443  0.0006803 0.0000
 11  -4592.6833856837   0.000028083698 0.00033310  0.00000381  0.0018848 0.0000
 12  -4592.6834196276  -0.000033943863 0.00062280  0.00000597  0.0007919 0.0000
 13  -4592.6834268622  -0.000007234655 0.00043421  0.00000400  0.0002495 0.0000
 14  -4592.6834295040  -0.000002641805 0.00028868  0.00000260  0.0001732 0.0000
 15  -4592.6834301368  -0.000000632791 0.00023963  0.00000191  0.0001233 0.0000
 16  -4592.6834303043  -0.000000167475 0.00023087  0.00000158  0.0000905 0.0000
                 **** Energy Check signals convergence ****

               *****************************************************
               *                     SUCCESS                       *
               *           SCF CONVERGED AFTER  17 CYCLES          *
               *****************************************************

Old exchange energy                            =    -61.752507869 Eh
New exchange energy                            =    -61.752510088 Eh
Exchange energy change after final integration =     -0.000002220 Eh
Total energy after final integration           =  -4592.683432680 Eh
Final COS-X integration done in                =    12.582 sec

----------------
TOTAL SCF ENERGY
----------------

Total Energy       :        -4592.68343268 Eh         -124973.26972 eV

Components:
Nuclear Repulsion  :         3211.73974267 Eh           87395.88152 eV
Electronic Energy  :        -7804.42317535 Eh         -212369.15124 eV
One Electron Energy:       -12787.15186679 Eh         -347956.09204 eV
Two Electron Energy:         4982.72869144 Eh          135586.94080 eV
Max COSX asymmetry :            0.00000167 Eh               0.00005 eV

Virial components:
Potential Energy   :        -9173.65985178 Eh         -249627.97541 eV
Kinetic Energy     :         4580.97641910 Eh          124654.70569 eV
Virial Ratio       :            2.00255557


DFT components:
N(Alpha)           :      116.999956163675 electrons
N(Beta)            :      115.999957419822 electrons
N(Total)           :      232.999913583496 electrons
E(X)               :     -245.456181027770 Eh       
E(C)               :      -10.623787307787 Eh       
E(XC)              :     -256.079968335557 Eh       
DFET-embed. en.    :        0.000000000000 Eh       

---------------
SCF CONVERGENCE
---------------

  Last Energy change         ...   -1.5564e-07  Tolerance :   1.0000e-06
  Last MAX-Density change    ...    0.0000e+00  Tolerance :   1.0000e-05
  Last RMS-Density change    ...    0.0000e+00  Tolerance :   1.0000e-06
  Last DIIS Error            ...    1.8727e-05  Tolerance :   1.0000e-06

             **** THE GBW FILE WAS UPDATED (input_70.gbw) ****
             **** DENSITY input_70.scfp WAS UPDATED ****
             **** ENERGY FILE WAS UPDATED (input_70.en.tmp) ****
----------------------
UHF SPIN CONTAMINATION
----------------------

Warning: in a DFT calculation there is little theoretical justification to 
         calculate <S**2> as in Hartree-Fock theory. We will do it anyways
         but you should keep in mind that the values have only limited relevance

Expectation value of <S**2>     :     0.764832
Ideal value S*(S+1) for S=0.5   :     0.750000
Deviation                       :     0.014832

             **** THE GBW FILE WAS UPDATED (input_70.gbw) ****
             **** DENSITY input_70.scfp WAS UPDATED ****
----------------
ORBITAL ENERGIES
----------------
                 SPIN UP ORBITALS
  NO   OCC          E(Eh)            E(eV) 
   0   1.0000    -196.640281     -5350.8541 
   1   1.0000     -88.679702     -2413.0974 
   2   1.0000     -88.676668     -2413.0148 
   3   1.0000     -88.676335     -2413.0057 
   4   1.0000     -88.675096     -2412.9720 
   5   1.0000     -88.612551     -2411.2701 
   6   1.0000     -88.612059     -2411.2567 
   7   1.0000     -88.612033     -2411.2560 
   8   1.0000     -88.612030     -2411.2559 
   9   1.0000     -22.016076      -599.0879 
  10   1.0000     -18.857337      -513.1342 
  11   1.0000     -18.522904      -504.0338 
  12   1.0000     -18.517124      -503.8766 
  13   1.0000     -18.517088      -503.8756 
  14   1.0000     -10.024870      -272.7906 
  15   1.0000     -10.020817      -272.6803 
  16   1.0000     -10.015637      -272.5393 
  17   1.0000     -10.015150      -272.5261 
  18   1.0000     -10.005974      -272.2764 
  19   1.0000     -10.004639      -272.2401 
  20   1.0000      -9.992190      -271.9013 
  21   1.0000      -9.991848      -271.8920 
  22   1.0000      -9.991347      -271.8784 
  23   1.0000      -9.991137      -271.8727 
  24   1.0000      -7.733005      -210.4258 
  25   1.0000      -7.730303      -210.3522 
  26   1.0000      -7.730000      -210.3440 
  27   1.0000      -7.728891      -210.3138 
  28   1.0000      -7.666983      -208.6292 
  29   1.0000      -7.666483      -208.6156 
  30   1.0000      -7.666475      -208.6154 
  31   1.0000      -7.666455      -208.6148 
  32   1.0000      -5.698314      -155.0590 
  33   1.0000      -5.695554      -154.9839 
  34   1.0000      -5.695243      -154.9754 
  35   1.0000      -5.694361      -154.9514 
  36   1.0000      -5.694084      -154.9439 
  37   1.0000      -5.691658      -154.8779 
  38   1.0000      -5.691353      -154.8696 
  39   1.0000      -5.690231      -154.8391 
  40   1.0000      -5.687756      -154.7717 
  41   1.0000      -5.685048      -154.6980 
  42   1.0000      -5.684752      -154.6900 
  43   1.0000      -5.683673      -154.6606 
  44   1.0000      -5.631841      -153.2502 
  45   1.0000      -5.631326      -153.2362 
  46   1.0000      -5.631316      -153.2359 
  47   1.0000      -5.631305      -153.2356 
  48   1.0000      -5.625401      -153.0749 
  49   1.0000      -5.624977      -153.0634 
  50   1.0000      -5.624929      -153.0621 
  51   1.0000      -5.624905      -153.0615 
  52   1.0000      -5.624895      -153.0612 
  53   1.0000      -5.624466      -153.0495 
  54   1.0000      -5.624466      -153.0495 
  55   1.0000      -5.624441      -153.0488 
  56   1.0000      -2.409764       -65.5730 
  57   1.0000      -1.451127       -39.4872 
  58   1.0000      -1.439537       -39.1718 
  59   1.0000      -1.438471       -39.1428 
  60   1.0000      -0.644261       -17.5312 
  61   1.0000      -0.643834       -17.5196 
  62   1.0000      -0.618393       -16.8273 
  63   1.0000      -0.594264       -16.1707 
  64   1.0000      -0.593562       -16.1516 
  65   1.0000      -0.575902       -15.6711 
  66   1.0000      -0.575366       -15.6565 
  67   1.0000      -0.491920       -13.3858 
  68   1.0000      -0.489962       -13.3325 
  69   1.0000      -0.487545       -13.2668 
  70   1.0000      -0.486360       -13.2345 
  71   1.0000      -0.424140       -11.5414 
  72   1.0000      -0.420982       -11.4555 
  73   1.0000      -0.412099       -11.2138 
  74   1.0000      -0.406938       -11.0734 
  75   1.0000      -0.376393       -10.2422 
  76   1.0000      -0.373292       -10.1578 
  77   1.0000      -0.306571        -8.3422 
  78   1.0000      -0.292987        -7.9726 
  79   1.0000      -0.283360        -7.7106 
  80   1.0000      -0.277794        -7.5591 
  81   1.0000      -0.259181        -7.0527 
  82   1.0000      -0.251041        -6.8312 
  83   1.0000      -0.240417        -6.5421 
  84   1.0000      -0.224458        -6.1078 
  85   1.0000      -0.206156        -5.6098 
  86   1.0000      -0.194877        -5.3029 
  87   1.0000      -0.192006        -5.2247 
  88   1.0000      -0.187936        -5.1140 
  89   1.0000      -0.184270        -5.0142 
  90   1.0000      -0.179825        -4.8933 
  91   1.0000      -0.168750        -4.5919 
  92   1.0000      -0.151006        -4.1091 
  93   1.0000      -0.148882        -4.0513 
  94   1.0000      -0.142742        -3.8842 
  95   1.0000      -0.141557        -3.8520 
  96   1.0000      -0.130760        -3.5582 
  97   1.0000      -0.097512        -2.6534 
  98   1.0000      -0.094954        -2.5838 
  99   1.0000      -0.089639        -2.4392 
 100   1.0000      -0.083610        -2.2751 
 101   1.0000      -0.080536        -2.1915 
 102   1.0000      -0.080317        -2.1855 
 103   1.0000      -0.069947        -1.9034 
 104   1.0000      -0.050231        -1.3669 
 105   1.0000      -0.039274        -1.0687 
 106   1.0000      -0.037659        -1.0247 
 107   1.0000      -0.035844        -0.9754 
 108   1.0000      -0.031870        -0.8672 
 109   1.0000      -0.013252        -0.3606 
 110   1.0000      -0.004479        -0.1219 
 111   1.0000      -0.003493        -0.0951 
 112   1.0000       0.006041         0.1644 
 113   1.0000       0.010452         0.2844 
 114   1.0000       0.016111         0.4384 
 115   1.0000       0.033337         0.9071 
 116   1.0000       0.059527         1.6198 
 117   0.0000       0.187016         5.0890 
 118   0.0000       0.191609         5.2140 
 119   0.0000       0.194340         5.2883 
 120   0.0000       0.196443         5.3455 
 121   0.0000       0.211114         5.7447 
 122   0.0000       0.212108         5.7718 
 123   0.0000       0.218290         5.9400 
 124   0.0000       0.224517         6.1094 
 125   0.0000       0.226939         6.1753 
 126   0.0000       0.227209         6.1827 
 127   0.0000       0.234903         6.3920 
 128   0.0000       0.241633         6.5752 
 129   0.0000       0.243899         6.6368 
 130   0.0000       0.245856         6.6901 
 131   0.0000       0.249005         6.7758 
 132   0.0000       0.252672         6.8755 
 133   0.0000       0.253216         6.8904 
 134   0.0000       0.256854         6.9894 
 135   0.0000       0.260233         7.0813 
 136   0.0000       0.271367         7.3843 
 137   0.0000       0.274153         7.4601 
 138   0.0000       0.277169         7.5422 
 139   0.0000       0.281006         7.6466 
 140   0.0000       0.283209         7.7065 
 141   0.0000       0.284217         7.7339 
 142   0.0000       0.285748         7.7756 
 143   0.0000       0.291922         7.9436 
 144   0.0000       0.301055         8.1921 
 145   0.0000       0.305964         8.3257 
 146   0.0000       0.310030         8.4363 
 147   0.0000       0.316891         8.6230 
 148   0.0000       0.326441         8.8829 
 149   0.0000       0.328747         8.9457 
 150   0.0000       0.347658         9.4603 
 151   0.0000       0.360076         9.7982 
 152   0.0000       0.372960        10.1487 
 153   0.0000       0.374984        10.2038 
 154   0.0000       0.389191        10.5904 
 155   0.0000       0.393559        10.7093 
 156   0.0000       0.395429        10.7602 
 157   0.0000       0.396560        10.7909 
 158   0.0000       0.403191        10.9714 
 159   0.0000       0.412507        11.2249 
 160   0.0000       0.419954        11.4275 
 161   0.0000       0.426344        11.6014 
 162   0.0000       0.427513        11.6332 
 163   0.0000       0.432315        11.7639 
 164   0.0000       0.444929        12.1071 
 165   0.0000       0.451903        12.2969 
 166   0.0000       0.455334        12.3903 
 167   0.0000       0.455854        12.4044 
 168   0.0000       0.460191        12.5224 
 169   0.0000       0.468271        12.7423 
 170   0.0000       0.471923        12.8417 
 171   0.0000       0.476255        12.9596 
 172   0.0000       0.480795        13.0831 
 173   0.0000       0.482981        13.1426 
 174   0.0000       0.490950        13.3594 
 175   0.0000       0.496643        13.5143 
 176   0.0000       0.498625        13.5683 
 177   0.0000       0.502779        13.6813 
 178   0.0000       0.504551        13.7295 
 179   0.0000       0.511253        13.9119 
 180   0.0000       0.514756        14.0072 
 181   0.0000       0.517572        14.0839 
 182   0.0000       0.519900        14.1472 
 183   0.0000       0.521882        14.2011 
 184   0.0000       0.540074        14.6962 
 185   0.0000       0.543762        14.7965 
 186   0.0000       0.550501        14.9799 
 187   0.0000       0.551612        15.0101 
 188   0.0000       0.554183        15.0801 
 189   0.0000       0.556229        15.1358 
 190   0.0000       0.561492        15.2790 
 191   0.0000       0.567871        15.4525 
 192   0.0000       0.573577        15.6078 
 193   0.0000       0.576324        15.6826 
 194   0.0000       0.578180        15.7331 
 195   0.0000       0.580517        15.7967 
 196   0.0000       0.580955        15.8086 
 197   0.0000       0.582380        15.8474 
 198   0.0000       0.587800        15.9949 
 199   0.0000       0.588182        16.0053 
 200   0.0000       0.591540        16.0966 
 201   0.0000       0.592717        16.1287 
 202   0.0000       0.599177        16.3044 
 203   0.0000       0.604827        16.4582 
 204   0.0000       0.608394        16.5552 
 205   0.0000       0.615133        16.7386 
 206   0.0000       0.620440        16.8830 
 207   0.0000       0.625990        17.0341 
 208   0.0000       0.628774        17.1098 
 209   0.0000       0.631282        17.1780 
 210   0.0000       0.636271        17.3138 
 211   0.0000       0.642187        17.4748 
 212   0.0000       0.645729        17.5712 
 213   0.0000       0.646450        17.5908 
 214   0.0000       0.653717        17.7886 
 215   0.0000       0.654023        17.7969 
 216   0.0000       0.660565        17.9749 
 217   0.0000       0.664357        18.0781 
 218   0.0000       0.668330        18.1862 
 219   0.0000       0.672577        18.3017 
 220   0.0000       0.677510        18.4360 
 221   0.0000       0.687813        18.7163 
 222   0.0000       0.691443        18.8151 
 223   0.0000       0.697515        18.9803 
 224   0.0000       0.715320        19.4649 
 225   0.0000       0.725099        19.7310 
 226   0.0000       0.730324        19.8731 
 227   0.0000       0.743104        20.2209 
 228   0.0000       0.747811        20.3490 
 229   0.0000       0.752455        20.4753 
 230   0.0000       0.773415        21.0457 
 231   0.0000       0.775595        21.1050 
 232   0.0000       0.788665        21.4607 
 233   0.0000       0.799101        21.7447 
 234   0.0000       0.801980        21.8230 
 235   0.0000       0.834009        22.6945 
 236   0.0000       0.847488        23.0613 
 237   0.0000       0.868527        23.6338 
 238   0.0000       0.873104        23.7584 
 239   0.0000       0.885694        24.1010 
 240   0.0000       0.892454        24.2849 
 241   0.0000       0.905525        24.6406 
 242   0.0000       0.910517        24.7764 
 243   0.0000       0.913704        24.8631 
 244   0.0000       0.917468        24.9656 
 245   0.0000       0.921808        25.0837 
 246   0.0000       0.930083        25.3088 
 247   0.0000       0.947597        25.7854 
 248   0.0000       0.962566        26.1927 
 249   0.0000       0.973166        26.4812 
 250   0.0000       0.977350        26.5951 
 251   0.0000       0.982894        26.7459 
 252   0.0000       0.984283        26.7837 
 253   0.0000       0.988980        26.9115 
 254   0.0000       0.999314        27.1927 
 255   0.0000       1.004238        27.3267 
 256   0.0000       1.006776        27.3958 
 257   0.0000       1.026308        27.9273 
 258   0.0000       1.030114        28.0308 
 259   0.0000       1.042369        28.3643 
 260   0.0000       1.056335        28.7443 
 261   0.0000       1.057576        28.7781 
 262   0.0000       1.058072        28.7916 
 263   0.0000       1.063561        28.9410 
 264   0.0000       1.073959        29.2239 
 265   0.0000       1.091413        29.6989 
 266   0.0000       1.099320        29.9140 
 267   0.0000       1.112794        30.2807 
 268   0.0000       1.123680        30.5769 
 269   0.0000       1.124063        30.5873 
 270   0.0000       1.125362        30.6227 
 271   0.0000       1.126952        30.6659 
 272   0.0000       1.132395        30.8140 
 273   0.0000       1.136138        30.9159 
 274   0.0000       1.139381        31.0041 
 275   0.0000       1.149253        31.2728 
 276   0.0000       1.155151        31.4333 
 277   0.0000       1.159590        31.5540 
 278   0.0000       1.180746        32.1297 
 279   0.0000       1.192314        32.4445 
 280   0.0000       1.200455        32.6660 
 281   0.0000       1.236127        33.6367 
 282   0.0000       1.238213        33.6935 
 283   0.0000       1.271267        34.5929 
 284   0.0000       1.273685        34.6587 
 285   0.0000       1.291020        35.1304 
 286   0.0000       1.297304        35.3014 
 287   0.0000       1.304342        35.4930 
 288   0.0000       1.315506        35.7967 
 289   0.0000       1.334696        36.3189 
 290   0.0000       1.352111        36.7928 
 291   0.0000       1.357266        36.9331 
 292   0.0000       1.376457        37.4553 
 293   0.0000       1.407121        38.2897 
 294   0.0000       1.418160        38.5901 
 295   0.0000       1.425442        38.7882 
 296   0.0000       1.438240        39.1365 
 297   0.0000       1.441216        39.2175 
 298   0.0000       1.462789        39.8045 
 299   0.0000       1.469765        39.9943 
 300   0.0000       1.472540        40.0698 
 301   0.0000       1.481635        40.3173 
 302   0.0000       1.484007        40.3819 
 303   0.0000       1.490015        40.5454 
 304   0.0000       1.499284        40.7976 
 305   0.0000       1.518753        41.3274 
 306   0.0000       1.520163        41.3657 
 307   0.0000       1.526689        41.5433 
 308   0.0000       1.530513        41.6474 
 309   0.0000       1.549876        42.1743 
 310   0.0000       1.560302        42.4580 
 311   0.0000       1.566104        42.6159 
 312   0.0000       1.590319        43.2748 
 313   0.0000       1.603422        43.6313 
 314   0.0000       1.604590        43.6631 
 315   0.0000       1.614246        43.9259 
 316   0.0000       1.625187        44.2236 
 317   0.0000       1.640366        44.6366 
 318   0.0000       1.646957        44.8160 
 319   0.0000       1.659438        45.1556 
 320   0.0000       1.667113        45.3644 
 321   0.0000       1.674375        45.5621 
 322   0.0000       1.677326        45.6424 
 323   0.0000       1.695851        46.1464 
 324   0.0000       1.704821        46.3905 
 325   0.0000       1.713386        46.6236 
 326   0.0000       1.722723        46.8777 
 327   0.0000       1.736644        47.2565 
 328   0.0000       1.741972        47.4015 
 329   0.0000       1.752329        47.6833 
 330   0.0000       1.760627        47.9091 
 331   0.0000       1.768489        48.1230 
 332   0.0000       1.773787        48.2672 
 333   0.0000       1.789256        48.6881 
 334   0.0000       1.795581        48.8602 
 335   0.0000       1.798625        48.9431 
 336   0.0000       1.805928        49.1418 
 337   0.0000       1.811926        49.3050 
 338   0.0000       1.831313        49.8326 
 339   0.0000       1.834970        49.9321 
 340   0.0000       1.844372        50.1879 
 341   0.0000       1.849180        50.3187 
 342   0.0000       1.849896        50.3382 
 343   0.0000       1.858455        50.5711 
 344   0.0000       1.860237        50.6196 
 345   0.0000       1.871082        50.9147 
 346   0.0000       1.879577        51.1459 
 347   0.0000       1.892983        51.5107 
 348   0.0000       1.920030        52.2467 
 349   0.0000       1.931883        52.5692 
 350   0.0000       1.934492        52.6402 
 351   0.0000       1.944896        52.9233 
 352   0.0000       1.951440        53.1014 
 353   0.0000       1.963894        53.4403 
 354   0.0000       1.965085        53.4727 
 355   0.0000       1.970556        53.6216 
 356   0.0000       1.982122        53.9363 
 357   0.0000       2.013245        54.7832 
 358   0.0000       2.032295        55.3016 
 359   0.0000       2.044140        55.6239 
 360   0.0000       2.047824        55.7241 
 361   0.0000       2.054998        55.9193 
 362   0.0000       2.069387        56.3109 
 363   0.0000       2.074654        56.4542 
 364   0.0000       2.080480        56.6127 
 365   0.0000       2.106978        57.3338 
 366   0.0000       2.111813        57.4653 
 367   0.0000       2.121620        57.7322 
 368   0.0000       2.127478        57.8916 
 369   0.0000       2.139680        58.2237 
 370   0.0000       2.160619        58.7934 
 371   0.0000       2.165904        58.9372 
 372   0.0000       2.175567        59.2002 
 373   0.0000       2.185531        59.4713 
 374   0.0000       2.194933        59.7272 
 375   0.0000       2.198646        59.8282 
 376   0.0000       2.200664        59.8831 
 377   0.0000       2.211334        60.1735 
 378   0.0000       2.212886        60.2157 
 379   0.0000       2.218556        60.3700 
 380   0.0000       2.228559        60.6422 
 381   0.0000       2.234870        60.8139 
 382   0.0000       2.240723        60.9732 
 383   0.0000       2.244428        61.0740 
 384   0.0000       2.263269        61.5867 
 385   0.0000       2.268937        61.7409 
 386   0.0000       2.282755        62.1169 
 387   0.0000       2.290360        62.3239 
 388   0.0000       2.294822        62.4453 
 389   0.0000       2.306813        62.7716 
 390   0.0000       2.309237        62.8375 
 391   0.0000       2.324382        63.2496 
 392   0.0000       2.327379        63.3312 
 393   0.0000       2.355813        64.1049 
 394   0.0000       2.357183        64.1422 
 395   0.0000       2.398672        65.2712 
 396   0.0000       2.405183        65.4483 
 397   0.0000       2.408327        65.5339 
 398   0.0000       2.412825        65.6563 
 399   0.0000       2.415172        65.7202 
 400   0.0000       2.438450        66.3536 
 401   0.0000       2.446498        66.5726 
 402   0.0000       2.471126        67.2428 
 403   0.0000       2.483761        67.5866 
 404   0.0000       2.514707        68.4287 
 405   0.0000       2.518886        68.5424 
 406   0.0000       2.534189        68.9588 
 407   0.0000       2.543023        69.1992 
 408   0.0000       2.549841        69.3847 
 409   0.0000       2.552262        69.4506 
 410   0.0000       2.554072        69.4998 
 411   0.0000       2.593179        70.5640 
 412   0.0000       2.602161        70.8084 
 413   0.0000       2.611238        71.0554 
 414   0.0000       2.614025        71.1312 
 415   0.0000       2.619446        71.2788 
 416   0.0000       2.631506        71.6069 
 417   0.0000       2.636896        71.7536 
 418   0.0000       2.668257        72.6070 
 419   0.0000       2.669853        72.6504 
 420   0.0000       2.683365        73.0181 
 421   0.0000       2.687944        73.1427 
 422   0.0000       2.700914        73.4956 
 423   0.0000       2.713139        73.8283 
 424   0.0000       2.737398        74.4884 
 425   0.0000       2.763070        75.1870 
 426   0.0000       2.778338        75.6024 
 427   0.0000       2.780636        75.6650 
 428   0.0000       2.795525        76.0701 
 429   0.0000       2.811088        76.4936 
 430   0.0000       2.823532        76.8322 
 431   0.0000       2.825485        76.8853 
 432   0.0000       2.857160        77.7473 
 433   0.0000       2.861658        77.8697 
 434   0.0000       2.864427        77.9450 
 435   0.0000       2.889855        78.6370 
 436   0.0000       2.903290        79.0025 
 437   0.0000       2.910497        79.1987 
 438   0.0000       2.911680        79.2308 
 439   0.0000       2.920167        79.4618 
 440   0.0000       2.921683        79.5030 
 441   0.0000       2.927654        79.6655 
 442   0.0000       2.949567        80.2618 
 443   0.0000       2.952399        80.3389 
 444   0.0000       2.965019        80.6823 
 445   0.0000       3.005821        81.7925 
 446   0.0000       3.012920        81.9857 
 447   0.0000       3.026155        82.3459 
 448   0.0000       3.047031        82.9139 
 449   0.0000       3.062277        83.3288 
 450   0.0000       3.078994        83.7837 
 451   0.0000       3.180724        86.5519 
 452   0.0000       3.188072        86.7518 
 453   0.0000       3.326596        90.5213 
 454   0.0000       3.329034        90.5876 
 455   0.0000       3.333872        90.7193 
 456   0.0000       3.372996        91.7839 
 457   0.0000       3.399151        92.4956 
 458   0.0000       3.434292        93.4518 
 459   0.0000       3.451693        93.9253 
 460   0.0000       3.452908        93.9584 
 461   0.0000       3.480916        94.7206 
 462   0.0000       3.513807        95.6155 
 463   0.0000       3.523991        95.8927 
 464   0.0000       3.540689        96.3470 
 465   0.0000       3.560591        96.8886 
 466   0.0000       3.575699        97.2997 
 467   0.0000       3.586179        97.5849 
 468   0.0000       3.607483        98.1646 
 469   0.0000       3.801892       103.4548 
 470   0.0000       3.844192       104.6058 
 471   0.0000       3.861249       105.0699 
 472   0.0000       3.994534       108.6968 
 473   0.0000       4.215684       114.7146 
 474   0.0000       4.542439       123.6060 
 475   0.0000       4.559505       124.0704 
 476   0.0000       4.562847       124.1614 
 477   0.0000       4.591028       124.9282 
 478   0.0000       4.619171       125.6940 
 479   0.0000       4.619529       125.7038 
 480   0.0000       5.202257       141.5606 
 481   0.0000       7.008061       190.6990 
 482   0.0000       7.055202       191.9818 
 483   0.0000       7.059177       192.0900 
 484   0.0000      18.719293       509.3779 
 485   0.0000      18.761855       510.5360 
 486   0.0000      19.001058       517.0451 
 487   0.0000      19.011695       517.3345 
 488   0.0000      19.046377       518.2783 
 489   0.0000      19.057869       518.5910 
 490   0.0000      19.247755       523.7580 
 491   0.0000      19.328514       525.9556 
 492   0.0000      19.778665       538.2048 
 493   0.0000      21.670941       589.6963 
 494   0.0000      21.704747       590.6162 
 495   0.0000      22.043280       599.8281 
 496   0.0000      22.117864       601.8577 
 497   0.0000      22.135336       602.3331 
 498   0.0000      22.192111       603.8781 
[...]
Total number of batches                      ...      239
Average number of points per batch           ...       58
Average number of grid points per atom       ...      437

Memory available               ... 870.3 MB
Memory needed per perturbation ...  23.5 MB
Perturbations treated per batch... 3
Number of batches              ... 1
     CP-SCF ITERATION   0:   4.2553e-02 (   2.9 sec   0/  3 done)
     CP-SCF ITERATION   1:   1.5837e-03 (   3.0 sec   0/  3 done)
     CP-SCF ITERATION   2:   4.2236e-04 (   3.0 sec   3/  3 done)
                    *** THE CP-SCF HAS CONVERGED ***

Forming final perturbed densities           ... done
Transforming perturbed density to AO basis  ... done

 Raw HFC matrix (all values in MHz): 
 -----------------------------------
                -0.4965               0.1815               0.0083
                 0.1823               0.8689              -0.0216
                 0.0079              -0.0216              -0.4938

 A(FC)          -0.0396              -0.0396              -0.0396
 A(SD)          -0.4534              -0.4873               0.9407
 A(ORB+DIA)      0.0028               0.0027              -0.0081    A(PC) =  -0.0009
 A(ORB)          0.0029               0.0027              -0.0083    A(PC) =  -0.0009
 A(DIA)         -0.0000              -0.0001               0.0002    A(PC) =   0.0000
             ----------           ----------           ----------
 A(Tot)         -0.4902              -0.5242               0.8930    A(iso)=   -0.0405
 Orientation: 
  X           0.3408761            0.9311521            0.1294572
  Y          -0.0306134           -0.1266371            0.9914766
  Z           0.9396096           -0.3419338           -0.0146618

Notes:  (1) The A matrix conforms to the "SAI" spin Hamiltonian convention.
        (2) Tensor is right-handed.

 Raw EFG matrix (all values in a.u.**-3):
 -----------------------------------
            -0.0345      -0.0641       0.1734
            -0.0641      -0.1055      -0.1072
             0.1734      -0.1072       0.1400

 V(El)       0.6010       0.4582      -1.0592
 V(Nuc)     -0.7418      -0.6040       1.3458
         ----------   ----------   ----------
 V(Tot)     -0.1408      -0.1458       0.2866 
 Orientation: 
  X       0.8570187   -0.1292495    0.4988122
  Y       0.3123558    0.9002100   -0.3034069
  Z      -0.4098205    0.4158323    0.8118686

Note: Tensor is right-handed


 Quadrupole tensor eigenvalues (in MHz;Q= 0.0029 I=  1.0)
  e**2qQ            =     0.192447 MHz 
  e**2qQ/(4I*(2I-1))=     0.048112 MHz 
  eta               =     0.017448
  NOTE: the diagonal representation of the SH term I*Q*I = e**2qQ/(4I(2I-1))*[-(1-eta),-(1+eta),2]

 RHO(0)=      0.440973894 a.u.**-3

 -----------------------------------------------------------
 Nucleus  31H : A:ISTP=    1 I=  0.5 P=533.5514 MHz/au**3
                Q:ISTP=    2 I=  1.0 Q=  0.0029 barn     
 -----------------------------------------------------------
 Solving for nuclear perturbation:
Forming RHS of the CP-SCF equations         ... 
Calc. nucleus orbit integrals (SHARK)       ... done

------------------------------------------------------------------------------
                           ORCA CP-SCF CALCULATION
------------------------------------------------------------------------------

Input orbitals are from        ... input_70.gbw
Input Perturbation             ... input_70.pin.tmp
Wavefunction output            ... input_70.pout.tmp
Perturbation mode              ... Imaginary perturbation
Solver                         ... POPLE
Max. number of iterations      ... 64
Convergence tolerance          ... 1.000e-03
Integral handling              ... Direct
DFT GridXC                     ... 1
COSX GridX                     ... 1
COSX IntAccX                   ... 3.067
COSX Algorithm                 ... Auto
Number of perturbations        ... 3
Number of operators            ... 2
Orbital ranges used for CP-SCF:
 Operator 0:  Orbitals   0...116  to 117...516
 Operator 1:  Orbitals   0...115  to 116...516
Variables per perturbation     ... 93316
DFT calculation                         ... on
XC functional terms                     ... off
Hybrid DFT                              ... on
   Exchange mixing (SCF)                ...  0.200
   Exchange mixing (CP-SCF)             ...  0.200
   GGA exch. scaling(SCF)               ...  0.720
   GGA exch. scaling (CP-SCF)           ...  0.720
   GGA corr. scaling (SCF)              ...  0.810
   GGA corr. scaling (CP-SCF)           ...  0.810

CP-SCF GRID
-----------

General Integration Accuracy     IntAcc      ... 3.467
Radial Grid Type                 RadialGrid  ... OptM3 with GC (2021)
Angular Grid (max. ang.)         AngularGrid ... 1 (Lebedev-50)
Angular grid pruning method      GridPruning ... 4 (adaptive)
Weight generation scheme         WeightScheme... Becke
Basis function cutoff            BFCut       ... 1.0000e-10
Integration weight cutoff        WCut        ... 1.0000e-14
Angular grids for H and He will be reduced by one unit
Partially contracted basis set               ... off
Rotationally invariant grid construction     ... off

Total number of grid points                  ...    31452
Total number of batches                      ...      507
Average number of points per batch           ...       62
Average number of grid points per atom       ...      983

CP-SCF GRIDX
------------

General Integration Accuracy     IntAcc      ... 3.067
Radial Grid Type                 RadialGrid  ... OptM3 with GC (2021)
Angular Grid (max. ang.)         AngularGrid ... 1 (Lebedev-50)
Angular grid pruning method      GridPruning ... 4 (adaptive)
Weight generation scheme         WeightScheme... Becke
Basis function cutoff            BFCut       ... 1.0000e-10
Integration weight cutoff        WCut        ... 1.0000e-14
Angular grids for H and He will be reduced by one unit
Partially contracted basis set               ... on
Rotationally invariant grid construction     ... off

Total number of grid points                  ...    13999
Total number of batches                      ...      239
Average number of points per batch           ...       58
Average number of grid points per atom       ...      437

Memory available               ... 868.7 MB
Memory needed per perturbation ...  23.5 MB
Perturbations treated per batch... 3
Number of batches              ... 1
     CP-SCF ITERATION   0:   4.3670e-02 (   2.9 sec   0/  3 done)
     CP-SCF ITERATION   1:   1.3049e-03 (   3.0 sec   1/  3 done)
     CP-SCF ITERATION   2:   2.3271e-04 (   2.4 sec   3/  3 done)
                    *** THE CP-SCF HAS CONVERGED ***

Forming final perturbed densities           ... done
Transforming perturbed density to AO basis  ... done

 Raw HFC matrix (all values in MHz): 
 -----------------------------------
                -0.2622              -0.0477              -0.0013
                -0.0471               0.4882              -0.0841
                -0.0016              -0.0847              -0.2521

 A(FC)          -0.0083              -0.0083              -0.0083
 A(SD)          -0.2495              -0.2636               0.5130
 A(ORB+DIA)      0.0014               0.0016              -0.0042    A(PC) =  -0.0004
 A(ORB)          0.0015               0.0016              -0.0043    A(PC) =  -0.0004
 A(DIA)         -0.0001              -0.0000               0.0001    A(PC) =  -0.0000
             ----------           ----------           ----------
 A(Tot)         -0.2564              -0.2703               0.5005    A(iso)=   -0.0087
 Orientation: 
  X           0.6104196            0.7896668            0.0617595
  Y          -0.0502280            0.1164052           -0.9919309
  Z          -0.7904840            0.6023921            0.1107194

Notes:  (1) The A matrix conforms to the "SAI" spin Hamiltonian convention.
        (2) Tensor is right-handed.

 Raw EFG matrix (all values in a.u.**-3):
 -----------------------------------
            -0.0518      -0.1666      -0.0534
            -0.1666       0.1709       0.0968
            -0.0534       0.0968      -0.1191

 V(El)       0.5423       0.8244      -1.3667
 V(Nuc)     -0.6829      -0.9737       1.6565
         ----------   ----------   ----------
 V(Tot)     -0.1405      -0.1493       0.2898 
 Orientation: 
  X       0.8478896   -0.2708849   -0.4557461
  Y       0.5042774    0.1466870    0.8509919
  Z      -0.1636688   -0.9513697    0.2609756

Note: Tensor is right-handed


 Quadrupole tensor eigenvalues (in MHz;Q= 0.0029 I=  1.0)
  e**2qQ            =     0.194605 MHz 
  e**2qQ/(4I*(2I-1))=     0.048651 MHz 
  eta               =     0.030116
  NOTE: the diagonal representation of the SH term I*Q*I = e**2qQ/(4I(2I-1))*[-(1-eta),-(1+eta),2]

 RHO(0)=      0.444525155 a.u.**-3

 -----------------------------------------------------------
 Nucleus   0V : A:ISTP=   51 I=  3.5 P=140.5173 MHz/au**3
                Q:ISTP=   51 I=  3.5 Q= -0.0430 barn     
 -----------------------------------------------------------
 Solving for nuclear perturbation:
Forming RHS of the CP-SCF equations         ... 
Calc. nucleus orbit integrals (SHARK)       ... done

------------------------------------------------------------------------------
                           ORCA CP-SCF CALCULATION
------------------------------------------------------------------------------

Input orbitals are from        ... input_70.gbw
Input Perturbation             ... input_70.pin.tmp
Wavefunction output            ... input_70.pout.tmp
Perturbation mode              ... Imaginary perturbation
Solver                         ... POPLE
Max. number of iterations      ... 64
Convergence tolerance          ... 1.000e-03
Integral handling              ... Direct
DFT GridXC                     ... 1
COSX GridX                     ... 1
COSX IntAccX                   ... 3.067
COSX Algorithm                 ... Auto
Number of perturbations        ... 3
Number of operators            ... 2
Orbital ranges used for CP-SCF:
 Operator 0:  Orbitals   0...116  to 117...516
 Operator 1:  Orbitals   0...115  to 116...516
Variables per perturbation     ... 93316
DFT calculation                         ... on
XC functional terms                     ... off
Hybrid DFT                              ... on
   Exchange mixing (SCF)                ...  0.200
   Exchange mixing (CP-SCF)             ...  0.200
   GGA exch. scaling(SCF)               ...  0.720
   GGA exch. scaling (CP-SCF)           ...  0.720
   GGA corr. scaling (SCF)              ...  0.810
   GGA corr. scaling (CP-SCF)           ...  0.810

CP-SCF GRID
-----------

General Integration Accuracy     IntAcc      ... 3.467
Radial Grid Type                 RadialGrid  ... OptM3 with GC (2021)
Angular Grid (max. ang.)         AngularGrid ... 1 (Lebedev-50)
Angular grid pruning method      GridPruning ... 4 (adaptive)
Weight generation scheme         WeightScheme... Becke
Basis function cutoff            BFCut       ... 1.0000e-10
Integration weight cutoff        WCut        ... 1.0000e-14
Angular grids for H and He will be reduced by one unit
Partially contracted basis set               ... off
Rotationally invariant grid construction     ... off

Total number of grid points                  ...    31452
Total number of batches                      ...      507
Average number of points per batch           ...       62
Average number of grid points per atom       ...      983

CP-SCF GRIDX
------------

General Integration Accuracy     IntAcc      ... 3.067
Radial Grid Type                 RadialGrid  ... OptM3 with GC (2021)
Angular Grid (max. ang.)         AngularGrid ... 1 (Lebedev-50)
Angular grid pruning method      GridPruning ... 4 (adaptive)
Weight generation scheme         WeightScheme... Becke
Basis function cutoff            BFCut       ... 1.0000e-10
Integration weight cutoff        WCut        ... 1.0000e-14
Angular grids for H and He will be reduced by one unit
Partially contracted basis set               ... on
Rotationally invariant grid construction     ... off

Total number of grid points                  ...    13999
Total number of batches                      ...      239
Average number of points per batch           ...       58
Average number of grid points per atom       ...      437

Memory available               ... 867.2 MB
Memory needed per perturbation ...  23.5 MB
Perturbations treated per batch... 3
Number of batches              ... 1
     CP-SCF ITERATION   0:   1.0389e+01 (   3.1 sec   0/  3 done)
     CP-SCF ITERATION   1:   1.8608e+00 (   3.0 sec   0/  3 done)
     CP-SCF ITERATION   2:   3.1329e-01 (   3.0 sec   0/  3 done)
     CP-SCF ITERATION   3:   4.0021e-02 (   3.0 sec   0/  3 done)
     CP-SCF ITERATION   4:   9.3653e-03 (   3.0 sec   0/  3 done)
     CP-SCF ITERATION   5:   2.1122e-03 (   3.0 sec   0/  3 done)
     CP-SCF ITERATION   6:   3.1779e-04 (   3.0 sec   3/  3 done)
                    *** THE CP-SCF HAS CONVERGED ***

Forming final perturbed densities           ... done
Transforming perturbed density to AO basis  ... done

 Raw HFC matrix (all values in MHz): 
 -----------------------------------
              -211.9598            -111.5612            -101.2892
              -111.5988            -170.1212             -74.1803
              -101.2642             -74.1507            -147.6345

 A(FC)        -165.4699            -165.4699            -165.4699
 A(SD)         100.7981              88.5971            -189.3952
 A(ORB+DIA)     -6.5261              -7.6605             -19.1192    A(PC) = -11.1019
 A(ORB)         -6.5257              -7.6610             -19.1191    A(PC) = -11.1019
 A(DIA)         -0.0004               0.0005              -0.0001    A(PC) =  -0.0000
             ----------           ----------           ----------
 A(Tot)        -71.1979             -84.5333            -373.9843    A(iso)= -176.5718
 Orientation: 
  X          -0.7137948            0.1636396            0.6809692
  Y           0.3497202           -0.7591391            0.5490024
  Z           0.6067888            0.6300238            0.4846415

Notes:  (1) The A matrix conforms to the "SAI" spin Hamiltonian convention.
        (2) Tensor is right-handed.

 Raw EFG matrix (all values in a.u.**-3):
 -----------------------------------
             0.0853       0.1634       0.1195
             0.1634      -0.0358       0.1571
             0.1195       0.1571      -0.0496

 V(El)       0.1401      -0.4685       0.3284
 V(Nuc)     -0.2376       0.2643      -0.0266
         ----------   ----------   ----------
 V(Tot)     -0.0976      -0.2042       0.3018 
 Orientation: 
  X      -0.7138064    0.1602275    0.6817680
  Y       0.3593228   -0.7517951    0.5528936
  Z       0.6011386    0.6396337    0.4790627

Note: Tensor is right-handed


 Quadrupole tensor eigenvalues (in MHz;Q=-0.0430 I=  3.5)
  e**2qQ            =    -3.049237 MHz 
  e**2qQ/(4I*(2I-1))=    -0.036300 MHz 
  eta               =     0.353507
  NOTE: the diagonal representation of the SH term I*Q*I = e**2qQ/(4I(2I-1))*[-(1-eta),-(1+eta),2]

 RHO(0)=   8115.216831616 a.u.**-3


--------------------------------------------------------------------------------
----------------------------------------------------------------------------
                           ORCA EULER ANGLE PROGRAM
----------------------------------------------------------------------------

Only g-tensor available        -->  using g-tensor as reference tensor

Reference tensor               ...  g

g-tensor ordering              ...  |g_min> --> |gx>
                                    |g_mid> --> |gy>
                                    |g_max> --> |gz>

A- and EFG-tensor ordering     ...  the axes |Ax>, |Qx>, |Ay>, etc. are assigned
                                    such that the Euler rotation is minimal. You
                                    can find the respective eigenvalues as Ax,
                                    EFGx, Ay, etc. in the tables below.
                                    The relation of |Ax>, |Ay>,  etc. to Amin, Amid, etc.
                                    (as printed in the ORCA EPR/NMR CALCULATION Output)
                                    is obtained in the detailed printout.

Euler rotation around          ...  z - y - z
   First rotation              -->  by alpha around z
   Second rotation             -->  by beta around y'
   Third rotation              -->  by gamma around z''
   Positive / Negative angle   -->  clockwise / counterclockwise rotation

Plot EFG-tensors                    (-)
Plot HFC-tensors                    (-)
Detailed Printout                   (-)

-------------------------------------------------------------------------
          Euler rotation of hyperfine tensor to g-tensor
-------------------------------------------------------------------------

-------------------------------------------------------------------
 Atom  |   Alpha    Beta    Gamma   |   Ax       Ay       Az 
       |          [degrees]         |           [MHz]         
-------------------------------------------------------------------
 19H     -145.3     30.4   -170.6      -0.46     0.80    -0.49
 20H      -67.2     22.2     95.8      -0.28     0.51    -0.26
 21H      -19.2      1.8     51.8      -0.12     0.46    -0.12
 22H       -6.0      6.5     24.5      -0.22     0.45    -0.22
 23H      119.5     20.4    -95.6      -0.28     0.47    -0.26
 24H       37.8     19.5      3.5      -0.56     0.98    -0.59
 26H       67.4     20.3    -94.3      -0.27     0.50    -0.25
 27H      142.1     23.2    175.1      -0.50     0.91    -0.53
 28H     -173.6      4.7    154.3      -0.22     0.45    -0.22
 29H      -22.5      0.9    -10.8      -0.12     0.47    -0.12
 30H      -39.9     23.4     -3.4      -0.49     0.89    -0.52
 31H     -116.2     21.9     88.9      -0.27     0.50    -0.26
  0V      -97.1      0.9     96.5    -373.98   -84.53   -71.20
-------------------------------------------------------------------


-------------------------------------------------------------------------------
    Euler rotation of Electric Field Gradient (EFG) tensor to g-tensor
-------------------------------------------------------------------------------

-------------------------------------------------------------------
 Atom  |   Alpha    Beta    Gamma  |   EFGx     EFGy     EFGz
       |          [degrees]        |         [a.u.**-3]       
-------------------------------------------------------------------
 19H       13.6     46.0    -48.9     -0.11     0.23    -0.12
 20H       14.0     33.8    -47.8     -0.11    -0.13     0.24
 21H      -96.2      6.7     76.8      0.28    -0.14    -0.14
 22H     -173.5      8.4    137.8     -0.15     0.29    -0.14
 23H     -131.7     46.2    101.7     -0.12    -0.13     0.25
 24H      165.4     35.1    162.9     -0.12     0.24    -0.12
 26H      -37.4     39.8     66.3     -0.14    -0.15     0.29
 27H     -178.6     41.9   -147.9     -0.15     0.29    -0.14
 28H      -44.5      1.2     79.5     -0.15     0.29    -0.14
 29H      -96.6      1.2    115.2      0.28    -0.14    -0.14
 30H        1.5     41.7     32.9     -0.15     0.29    -0.14
 31H      148.6     37.9   -118.2     -0.14    -0.15     0.29
  0V     -137.7      0.3    137.5      0.30    -0.20    -0.10
-------------------------------------------------------------------


Maximum memory used throughout the entire EPRNMR-calculation: 221.6 MB

Timings for individual modules:

Sum of individual times         ...     1649.772 sec (=  27.496 min)
GTO integral calculation        ...        1.389 sec (=   0.023 min)   0.1 %
Spin-Orbit-Coupling Matrices    ...        6.776 sec (=   0.113 min)   0.4 %
SCF iterations                  ...      112.052 sec (=   1.868 min)   6.8 %
EPR/NMR calculation             ...     1529.554 sec (=  25.493 min)  92.7 %
                             ****ORCA TERMINATED NORMALLY****
TOTAL RUN TIME: 0 days 0 hours 27 minutes 31 seconds 28 msec
