
                                 *****************
                                 * O   R   C   A *
                                 *****************

                                            #,                                       
                                            ###                                      
                                            ####                                     
                                            #####                                    
                                            ######                                   
                                           ########,                                 
                                     ,,################,,,,,                         
                               ,,#################################,,                 
                          ,,##########################################,,             
                       ,#########################################, ''#####,          
                    ,#############################################,,   '####,        
                  ,##################################################,,,,####,       
                ,###########''''           ''''###############################       
              ,#####''   ,,,,##########,,,,          '''####'''          '####       
            ,##' ,,,,###########################,,,                        '##       
           ' ,,###''''                  '''############,,,                           
         ,,##''                                '''############,,,,        ,,,,,,###''
      ,#''                                            '''#######################'''  
     '                                                          ''''####''''         
             ,#######,   #######,   ,#######,      ##                                
            ,#'     '#,  ##    ##  ,#'     '#,    #''#        ######   ,####,        
            ##       ##  ##   ,#'  ##            #'  '#       #        #'  '#        
            ##       ##  #######   ##           ,######,      #####,   #    #        
            '#,     ,#'  ##    ##  '#,     ,#' ,#      #,         ##   #,  ,#        
             '#######'   ##     ##  '#######'  #'      '#     #####' # '####'        



                  #######################################################
                  #                        -***-                        #
                  #          Department of theory and spectroscopy      #
                  #    Directorship and core code : Frank Neese         #
                  #        Max Planck Institute fuer Kohlenforschung    #
                  #                Kaiser Wilhelm Platz 1               #
                  #                 D-45470 Muelheim/Ruhr               #
                  #                      Germany                        #
                  #                                                     #
                  #                  All rights reserved                #
                  #                        -***-                        #
                  #######################################################


                         Program Version 5.0.4 -  RELEASE  -


 With contributions from (in alphabetic order):
   Daniel Aravena         : Magnetic Suceptibility
   Michael Atanasov       : Ab Initio Ligand Field Theory (pilot matlab implementation)
   Alexander A. Auer      : GIAO ZORA, VPT2 properties, NMR spectrum
   Ute Becker             : Parallelization
   Giovanni Bistoni       : ED, misc. LED, open-shell LED, HFLD
   Martin Brehm           : Molecular dynamics
   Dmytro Bykov           : SCF Hessian
   Vijay G. Chilkuri      : MRCI spin determinant printing, contributions to CSF-ICE
   Dipayan Datta          : RHF DLPNO-CCSD density
   Achintya Kumar Dutta   : EOM-CC, STEOM-CC
   Dmitry Ganyushin       : Spin-Orbit,Spin-Spin,Magnetic field MRCI
   Miquel Garcia          : C-PCM and meta-GGA Hessian, CC/C-PCM, Gaussian charge scheme
   Yang Guo               : DLPNO-NEVPT2, F12-NEVPT2, CIM, IAO-localization
   Andreas Hansen         : Spin unrestricted coupled pair/coupled cluster methods
   Benjamin Helmich-Paris : MC-RPA, TRAH-SCF, COSX integrals
   Lee Huntington         : MR-EOM, pCC
   Robert Izsak           : Overlap fitted RIJCOSX, COSX-SCS-MP3, EOM
   Marcus Kettner         : VPT2
   Christian Kollmar      : KDIIS, OOCD, Brueckner-CCSD(T), CCSD density, CASPT2, CASPT2-K
   Simone Kossmann        : Meta GGA functionals, TD-DFT gradient, OOMP2, MP2 Hessian
   Martin Krupicka        : Initial AUTO-CI
   Lucas Lang             : DCDCAS
   Marvin Lechner         : AUTO-CI (C++ implementation), FIC-MRCC
   Dagmar Lenk            : GEPOL surface, SMD
   Dimitrios Liakos       : Extrapolation schemes; Compound Job, initial MDCI parallelization
   Dimitrios Manganas     : Further ROCIS development; embedding schemes
   Dimitrios Pantazis     : SARC Basis sets
   Anastasios Papadopoulos: AUTO-CI, single reference methods and gradients
   Taras Petrenko         : DFT Hessian,TD-DFT gradient, ASA, ECA, R-Raman, ABS, FL, XAS/XES, NRVS
   Peter Pinski           : DLPNO-MP2, DLPNO-MP2 Gradient
   Christoph Reimann      : Effective Core Potentials
   Marius Retegan         : Local ZFS, SOC
   Christoph Riplinger    : Optimizer, TS searches, QM/MM, DLPNO-CCSD(T), (RO)-DLPNO pert. Triples
   Tobias Risthaus        : Range-separated hybrids, TD-DFT gradient, RPA, STAB
   Michael Roemelt        : Original ROCIS implementation
   Masaaki Saitow         : Open-shell DLPNO-CCSD energy and density
   Barbara Sandhoefer     : DKH picture change effects
   Avijit Sen             : IP-ROCIS
   Kantharuban Sivalingam : CASSCF convergence, NEVPT2, FIC-MRCI
   Bernardo de Souza      : ESD, SOC TD-DFT
   Georgi Stoychev        : AutoAux, RI-MP2 NMR, DLPNO-MP2 response
   Willem Van den Heuvel  : Paramagnetic NMR
   Boris Wezisla          : Elementary symmetry handling
   Frank Wennmohs         : Technical directorship


 We gratefully acknowledge several colleagues who have allowed us to
 interface, adapt or use parts of their codes:
   Stefan Grimme, W. Hujo, H. Kruse, P. Pracht,  : VdW corrections, initial TS optimization,
                  C. Bannwarth, S. Ehlert          DFT functionals, gCP, sTDA/sTD-DF
   Ed Valeev, F. Pavosevic, A. Kumar             : LibInt (2-el integral package), F12 methods
   Garnet Chan, S. Sharma, J. Yang, R. Olivares  : DMRG
   Ulf Ekstrom                                   : XCFun DFT Library
   Mihaly Kallay                                 : mrcc  (arbitrary order and MRCC methods)
   Jiri Pittner, Ondrej Demel                    : Mk-CCSD
   Frank Weinhold                                : gennbo (NPA and NBO analysis)
   Christopher J. Cramer and Donald G. Truhlar   : smd solvation model
   Lars Goerigk                                  : TD-DFT with DH, B97 family of functionals
   V. Asgeirsson, H. Jonsson                     : NEB implementation
   FAccTs GmbH                                   : IRC, NEB, NEB-TS, DLPNO-Multilevel, CI-OPT
                                                   MM, QMMM, 2- and 3-layer-ONIOM, Crystal-QMMM,
                                                   LR-CPCM, SF, NACMEs, symmetry and pop. for TD-DFT,
                                                   nearIR, NL-DFT gradient (VV10), updates on ESD,
                                                   ML-optimized integration grids
   S Lehtola, MJT Oliveira, MAL Marques          : LibXC Library
   Liviu Ungur et al                             : ANISO software


 Your calculation uses the libint2 library for the computation of 2-el integrals
 For citations please refer to: http://libint.valeyev.net

 Your ORCA version has been built with support for libXC version: 5.1.0
 For citations please refer to: https://tddft.org/programs/libxc/

 This ORCA versions uses:
   CBLAS   interface :  Fast vector & matrix operations
   LAPACKE interface :  Fast linear algebra routines
   SCALAPACK package :  Parallel linear algebra routines
   Shared memory     :  Shared parallel matrices
   BLAS/LAPACK       :  OpenBLAS 0.3.15  USE64BITINT DYNAMIC_ARCH NO_AFFINITY Prescott SINGLE_THREADED
        Core in use  :  Prescott
   Copyright (c) 2011-2014, The OpenBLAS Project


================================================================================

----- Orbital basis set information -----
Your calculation utilizes the basis: TZVP 

The basis set includes element-specific modifications.

Your calculation utilizes the basis: CP(PPP) 

----- AuxJ basis set information -----
Your calculation utilizes the auxiliary basis: def2/J
   F. Weigend, Phys. Chem. Chem. Phys. 8, 1057 (2006).

================================================================================
                                        WARNINGS
                       Please study these warnings very carefully!
================================================================================


WARNING: your system is open-shell and RHF/RKS was chosen
  ===> : WILL SWITCH to UHF/UKS


INFO   : the flag for use of the SHARK integral package has been found!

================================================================================
                                       INPUT FILE
================================================================================
NAME = input_10.inp
|  1> ! nofrozencore ReducedPop printbasis
|  2> ! B3LYP TZVP
|  3> 
|  4> %basis
|  5> newgto V "CP(PPP)" end
|  6> end
|  7> 
|  8> %pal
|  9> nprocs 8
| 10> end
| 11> 
| 12> % sym SymThresh 1e-2 end
| 13> * xyz -2 2 
| 14> V -1.0418029754927522 0.1493368833351442 -0.3699558720336708
| 15> S -0.46026711503284495 2.023855575672666 1.1250846018797889
| 16> S 0.5276809212617484 1.2228684004164405 -1.940975767673901
| 17> S -1.2008111806156558 -1.0966486589882236 1.7131723658644995
| 18> S -0.23030179770160658 -1.9014619548274116 -1.3998525057152726
| 19> O -2.5401888734880784 0.342838638120681 -0.8903159316978011
| 20> C 0.914442148515461 -0.05814403265982017 -3.0984369334432937
| 21> C 0.5796363501414729 -1.3562503630032572 -2.8725686888880837
| 22> C -0.9515833111981322 1.4540720079848721 2.7259249897025857
| 23> C -1.2768652491359886 0.1546543391844552 2.9588872690648946
| 24> S 1.7721826182688833 0.4823010066149521 -4.5971017347252445
| 25> S 0.9913970972101349 -2.679160361988112 -4.02015228162778
| 26> S -1.7470435321913766 -0.4530661681625075 4.585618990199341
| 27> S -0.9934283347909126 2.7181943469799776 4.020232247528201
| 28> C 2.830965902937446 -2.730663429152746 -3.876364863507734
| 29> C -0.1577000022484357 -0.291501725310052 5.50932943272356
| 30> C 3.450502464313193 -0.2884326259185436 -4.473151603020885
| 31> C 0.355108607390493 2.2267059813217895 5.188021571646069
| 32> C 3.5700661311719224 -1.7764472495615207 -4.816283756600151
| 33> H 3.824398491180464 -0.09185347255150497 -3.4603519295610417
| 34> H 4.063105723651186 0.29600011248388847 -5.1744619964080805
| 35> H 4.641540271773815 -2.033844150986174 -4.796582391687459
| 36> H 3.2211035309213494 -1.9444296114026207 -5.842754933436424
| 37> H 3.1197345003352526 -3.7674451325958542 -4.098885559007078
| 38> H 3.0736186375894934 -2.5305883515381775 -2.8258995600629193
| 39> C 0.06521983800743514 1.0763188883274422 6.1565850812687435
| 40> H 0.5539269297642988 3.142624242430017 5.762699903746686
| 41> H 1.2461944540776349 2.0128024077643065 4.5842308645204985
| 42> H -0.8087552391860503 1.3269597440178833 6.770625539943419
| 43> H 0.925234235893097 0.9980159720686671 6.841299387889932
| 44> H 0.6459481788757686 -0.5422058920146322 4.806650991829207
| 45> H -0.18274648174520042 -1.0688747811997203 6.2858114198182875
| 46> * 
| 47> 
| 48> % eprnmr
| 49> gtensor true
| 50> Nuclei = all H {aiso,adip,aorb,fgrad,rho}
| 51> Nuclei = all V {aiso,adip,aorb,fgrad,rho}
| 52> end
| 53> 
| 54>                          ****END OF INPUT****
================================================================================

------------------------------------------------------------------------------
                            SYMMETRY HANDLING SETUP
------------------------------------------------------------------------------

------------------
SYMMETRY DETECTION
------------------
The point group will now be determined using a tolerance of 1.0000e-02.
Splitting atom subsets according to nuclear charge, mass and basis set.
Splitting atom subsets according to distance from the molecule's center.
Identifying relative distance patterns of the atoms.
Splitting atom subsets according to atoms' relative distance patterns.
Bring atoms of each subset into input order.
The molecule is neither linear nor planar.
There is at least one atom subset not centered around the molecule's center.
The molecule does not have a center of inversion.
Analyzing the first atom subset for its symmetry.
The atom subset represents a 4-gon with alternating side lengths
that is not centered around the molecule's center.
Testing point group C2v.
Test failed.
Testing point group C2.
Test failed.
Testing point group Cs.
Test failed.
Testing point group Cs.
Test failed.
No testing is needed for point group C1.
This point group has been found:    C1
Largest non-degenerate subgroup:    C1


Mass-centered symmetry-perfected Cartesians (point group C1):

Atom          Symmetry-perfected Cartesians (x, y, z; au)
  0      -1.970751698768    0.282532088846   -0.700012005553
  1      -0.871808185445    3.824859050280    2.125205049272
  2       0.995143037697    2.311212652262   -3.668809359254
  3      -2.271233659497   -2.072039352971    3.236529865913
  4      -0.437236715388   -3.592916071045   -2.646234589458
  5      -4.802290688909    0.648197411824   -1.683350009349
  6       1.726015836426   -0.109550020400   -5.856093973208
  7       1.093324569450   -2.562615477459   -5.429264848649
  8      -1.800261241357    2.748124151741    5.150354966377
  9      -2.414955020371    0.292580624130    5.590589873906
 10       3.346910418241    0.911743094266   -8.688160014178
 11       1.871439614109   -5.062553075366   -7.597883554708
 12      -3.303463209463   -0.855844700723    8.664667320212
 13      -1.879336876015    5.136969172214    7.596241216814
 14       5.347720861438   -5.159879767364   -7.326164712958
 15      -0.300039205151   -0.550532150753   10.410227083626
 16       6.518475292390   -0.544732393425   -8.453928210993
 17       0.669028626184    4.208190763111    9.803043221514
 18       6.744417878320   -3.356672515380   -9.102354009001
 19       7.225036385730   -0.173251629923   -6.540014199629
 20       7.676127681286    0.559685425853   -9.779212789368
 21       8.769210563636   -3.843082166793   -9.065123824851
 22       6.084974132865   -3.674113174589  -11.042103417585
 23       5.893414426597   -7.119113247532   -7.746667886581
 24       5.806268075578   -4.781792664449   -5.341072976260
 25       0.121218242750    2.034274209354   11.633362998010
 26       1.044740805876    5.939025437663   10.889027884283
 27       2.352936838236    3.803971590021    8.662044142840
 28      -1.530355301018    2.507916784581   12.793731300053
 29       1.746409925983    1.886303142138   12.927285517502
 30       1.218635765198   -1.024294366457    9.082357270125
 31      -0.347370192019   -2.019554330274   11.877565387158


------------------
SYMMETRY REDUCTION
------------------
ORCA supports only abelian point groups.
It is now checked, if the determined point group is supported:
Point Group ( C1    ) is          ... supported

The point group is C1 - hence turning off symmetry
If this is a round-off problem, please increase the symmetry
        detection tolerance (%method SymThresh)

Storing the symmetry object:
Symmetry file                     ... input_10.sym.tmp
Writing symmetry information      ... done

                       ****************************
                       * Single Point Calculation *
                       ****************************

---------------------------------
CARTESIAN COORDINATES (ANGSTROEM)
---------------------------------
  V     -1.042877    0.149510   -0.370430
  S     -0.461341    2.024028    1.124610
  S      0.526607    1.223041   -1.941450
  S     -1.201885   -1.096476    1.712698
  S     -0.231376   -1.901289   -1.400327
  O     -2.541263    0.343011   -0.890790
  C      0.913368   -0.057971   -3.098911
  C      0.578562   -1.356078   -2.873043
  C     -0.952657    1.454245    2.725450
  C     -1.277939    0.154827    2.958413
  S      1.771109    0.482474   -4.597576
  S      0.990323   -2.678988   -4.020627
  S     -1.748117   -0.452894    4.585144
  S     -0.994502    2.718367    4.019758
  C      2.829892   -2.730491   -3.876839
  C     -0.158774   -0.291329    5.508855
  C      3.449429   -0.288260   -4.473626
  C      0.354035    2.226879    5.187547
  C      3.568992   -1.776275   -4.816758
  H      3.823325   -0.091681   -3.460826
  H      4.062032    0.296173   -5.174937
  H      4.640466   -2.033671   -4.797057
  H      3.220030   -1.944257   -5.843229
  H      3.118661   -3.767272   -4.099360
  H      3.072545   -2.530416   -2.826374
  C      0.064146    1.076492    6.156111
  H      0.552853    3.142797    5.762225
  H      1.245121    2.012975    4.583756
  H     -0.809829    1.327132    6.770151
  H      0.924160    0.998189    6.840825
  H      0.644874   -0.542033    4.806176
  H     -0.183820   -1.068702    6.285337

----------------------------
CARTESIAN COORDINATES (A.U.)
----------------------------
  NO LB      ZA    FRAG     MASS         X           Y           Z
   0 V    23.0000    0    50.940   -1.970752    0.282532   -0.700012
   1 S    16.0000    0    32.060   -0.871808    3.824859    2.125205
   2 S    16.0000    0    32.060    0.995143    2.311213   -3.668809
   3 S    16.0000    0    32.060   -2.271234   -2.072039    3.236530
   4 S    16.0000    0    32.060   -0.437237   -3.592916   -2.646235
   5 O     8.0000    0    15.999   -4.802291    0.648197   -1.683350
   6 C     6.0000    0    12.011    1.726016   -0.109550   -5.856094
   7 C     6.0000    0    12.011    1.093325   -2.562615   -5.429265
   8 C     6.0000    0    12.011   -1.800261    2.748124    5.150355
   9 C     6.0000    0    12.011   -2.414955    0.292581    5.590590
  10 S    16.0000    0    32.060    3.346910    0.911743   -8.688160
  11 S    16.0000    0    32.060    1.871440   -5.062553   -7.597884
  12 S    16.0000    0    32.060   -3.303463   -0.855845    8.664667
  13 S    16.0000    0    32.060   -1.879337    5.136969    7.596241
  14 C     6.0000    0    12.011    5.347721   -5.159880   -7.326165
  15 C     6.0000    0    12.011   -0.300039   -0.550532   10.410227
  16 C     6.0000    0    12.011    6.518475   -0.544732   -8.453928
  17 C     6.0000    0    12.011    0.669029    4.208191    9.803043
  18 C     6.0000    0    12.011    6.744418   -3.356673   -9.102354
  19 H     1.0000    0     1.008    7.225036   -0.173252   -6.540014
  20 H     1.0000    0     1.008    7.676128    0.559685   -9.779213
  21 H     1.0000    0     1.008    8.769211   -3.843082   -9.065124
  22 H     1.0000    0     1.008    6.084974   -3.674113  -11.042103
  23 H     1.0000    0     1.008    5.893414   -7.119113   -7.746668
  24 H     1.0000    0     1.008    5.806268   -4.781793   -5.341073
  25 C     6.0000    0    12.011    0.121218    2.034274   11.633363
  26 H     1.0000    0     1.008    1.044741    5.939025   10.889028
  27 H     1.0000    0     1.008    2.352937    3.803972    8.662044
  28 H     1.0000    0     1.008   -1.530355    2.507917   12.793731
  29 H     1.0000    0     1.008    1.746410    1.886303   12.927286
  30 H     1.0000    0     1.008    1.218636   -1.024294    9.082357
  31 H     1.0000    0     1.008   -0.347370   -2.019554   11.877565

--------------------------------
INTERNAL COORDINATES (ANGSTROEM)
--------------------------------
 V      0   0   0     0.000000000000     0.00000000     0.00000000
 S      1   0   0     2.467215090656     0.00000000     0.00000000
 S      1   2   0     2.466546803293    84.56565601     0.00000000
 S      1   2   3     2.432526841888    83.43396364   146.09400850
 S      1   2   3     2.434131695746   144.87779108    70.37169000
 O      1   2   3     1.597929228755   109.04720189   251.04616870
 C      3   1   2     1.769263533470   103.92508454   161.77779106
 C      7   3   1     1.359482045266   121.92591581   347.86373217
 C      2   1   3     1.768823017124   103.78049641   198.67487677
 C      9   2   1     1.359619814781   121.96408975    12.38192136
 S      7   3   1     1.809363352268   115.41873857   167.51230641
 S      8   7   3     1.799051383526   122.66958735   181.23375231
 S     10   9   2     1.799068627221   122.70378322   178.73279259
 S      9   2   1     1.809692673248   115.38473972   192.53014202
 C     12   8   7     1.845898366255   101.47383533    67.68642778
 C     13  10   9     1.845360915104   101.41689335   292.14431930
 C     11   7   3     1.850986621533   104.47728507   113.49027796
 C     14   9   2     1.850363370673   104.41743620   246.59540763
 C     15  12   8     1.529785994956   114.59612128   272.50618552
 H     17  11   7     1.097362647900   107.22658807   312.38824714
 H     17  11   7     1.099400130499   103.95559977   198.51939708
 H     19  15  12     1.102133450459   108.24262047   191.42148248
 H     19  15  12     1.097103480597   109.00642238   307.31524702
 H     15  12   8     1.099008218060   105.80728261   151.51578908
 H     15  12   8     1.096534422651   106.86177742    36.66584692
 C     16  13  10     1.529564108119   114.55917204    87.44064049
 H     18  14   9     1.099404462302   103.91040307   161.54576336
 H     18  14   9     1.097429698413   107.23589816    47.72890797
 H     26  16  13     1.097132152015   108.96748706    52.71804121
 H     26  16  13     1.102084294851   108.24614251   168.58896865
 H     16  13  10     1.096567357496   106.88350818   323.21547748
 H     16  13  10     1.099027056283   105.78911403   208.37988822

---------------------------
INTERNAL COORDINATES (A.U.)
---------------------------
 V      0   0   0     0.000000000000     0.00000000     0.00000000
 S      1   0   0     4.662360834818     0.00000000     0.00000000
 S      1   2   0     4.661097954723    84.56565601     0.00000000
 S      1   2   3     4.596809544580    83.43396364   146.09400850
 S      1   2   3     4.599842278857   144.87779108    70.37169000
 O      1   2   3     3.019648623735   109.04720189   251.04616870
 C      3   1   2     3.343423536992   103.92508454   161.77779106
 C      7   3   1     2.569048749536   121.92591581   347.86373217
 C      2   1   3     3.342591081740   103.78049641   198.67487677
 C      9   2   1     2.569309096189   121.96408975    12.38192136
 S      7   3   1     3.419201212540   115.41873857   167.51230641
 S      8   7   3     3.399714415716   122.66958735   181.23375231
 S     10   9   2     3.399747001578   122.70378322   178.73279259
 S      9   2   1     3.419823539002   115.38473972   192.53014202
 C     12   8   7     3.488242383274   101.47383533    67.68642778
 C     13  10   9     3.487226747789   101.41689335   292.14431930
 C     11   7   3     3.497857792249   104.47728507   113.49027796
 C     14   9   2     3.496680018812   104.41743620   246.59540763
 C     15  12   8     2.890876573974   114.59612128   272.50618552
 H     17  11   7     2.073714874126   107.22658807   312.38824714
 H     17  11   7     2.077565158240   103.95559977   198.51939708
 H     19  15  12     2.082730384401   108.24262047   191.42148248
 H     19  15  12     2.073225118901   109.00642238   307.31524702
 H     15  12   8     2.076824551062   105.80728261   151.51578908
 H     15  12   8     2.072149755227   106.86177742    36.66584692
 C     16  13  10     2.890457268620   114.55917204    87.44064049
 H     18  14   9     2.077573344161   103.91040307   161.54576336
 H     18  14   9     2.073841581232   107.23589816    47.72890797
 H     26  16  13     2.073279300029   108.96748706    52.71804121
 H     26  16  13     2.082637493764   108.24614251   168.58896865
 H     16  13  10     2.072211993065   106.88350818   323.21547748
 H     16  13  10     2.076860150144   105.78911403   208.37988822

---------------------
BASIS SET INFORMATION
---------------------
There are 5 groups of distinct atoms

 Group   1 Type V   : 17s11p5d1f contracted to 17s7p3d1f pattern {11111111111111111/3311111/311/1}
 Group   2 Type S   : 14s9p1d contracted to 5s4p1d pattern {73211/6111/1}
 Group   3 Type O   : 11s6p1d contracted to 5s3p1d pattern {62111/411/1}
 Group   4 Type C   : 11s6p1d contracted to 5s3p1d pattern {62111/411/1}
 Group   5 Type H   : 5s1p contracted to 3s1p pattern {311/1}

Atom   0V    basis set group =>   1
Atom   1S    basis set group =>   2
Atom   2S    basis set group =>   2
Atom   3S    basis set group =>   2
Atom   4S    basis set group =>   2
Atom   5O    basis set group =>   3
Atom   6C    basis set group =>   4
Atom   7C    basis set group =>   4
Atom   8C    basis set group =>   4
Atom   9C    basis set group =>   4
Atom  10S    basis set group =>   2
Atom  11S    basis set group =>   2
Atom  12S    basis set group =>   2
Atom  13S    basis set group =>   2
Atom  14C    basis set group =>   4
Atom  15C    basis set group =>   4
Atom  16C    basis set group =>   4
Atom  17C    basis set group =>   4
Atom  18C    basis set group =>   4
Atom  19H    basis set group =>   5
Atom  20H    basis set group =>   5
Atom  21H    basis set group =>   5
Atom  22H    basis set group =>   5
Atom  23H    basis set group =>   5
Atom  24H    basis set group =>   5
Atom  25C    basis set group =>   4
Atom  26H    basis set group =>   5
Atom  27H    basis set group =>   5
Atom  28H    basis set group =>   5
Atom  29H    basis set group =>   5
Atom  30H    basis set group =>   5
Atom  31H    basis set group =>   5

-------------------------
BASIS SET IN INPUT FORMAT
-------------------------

 # Basis set for element : H 
 NewGTO H 
 S 3 
   1      34.0613410000      0.0254393168
   2       5.1235746000      0.1900859340
   3       1.1646626000      0.8524411390
 S 1 
   1       0.3272304100      1.0000000000
 S 1 
   1       0.1030724100      1.0000000000
 P 1 
   1       0.8000000000      1.0000000000
  end;

 # Basis set for element : C 
 NewGTO C 
 S 6 
   1   13575.3496820000      0.0006064601
   2    2035.2333680000      0.0046978985
   3     463.2256235900      0.0243324735
   4     131.2001959800      0.0973999560
   5      42.8530158900      0.3019558443
   6      15.5841857700      0.6623361013
 S 2 
   1       6.2067138500      0.6559530795
   2       2.5764896500      0.3758563390
 S 1 
   1       0.5769633900      1.0000000000
 S 1 
   1       0.2297283100      1.0000000000
 S 1 
   1       0.0951644400      1.0000000000
 P 4 
   1      34.6972322400      0.0113272290
   2       7.9582622800      0.0761696612
   3       2.3780826900      0.3019225154
   4       0.8143320800      0.7278502776
 P 1 
   1       0.2888754700      1.0000000000
 P 1 
   1       0.1005682400      1.0000000000
 D 1 
   1       0.8000000000      1.0000000000
  end;

 # Basis set for element : O 
 NewGTO O 
 S 6 
   1   27032.3826310000      0.0005722654
   2    4052.3871392000      0.0044353333
   3     922.3272271000      0.0230201034
   4     261.2407098900      0.0928224938
   5      85.3546413500      0.2937849971
   6      31.0350352400      0.6740160462
 S 2 
   1      12.2608607300      0.6383993750
   2       4.9987076000      0.3953458663
 S 1 
   1       1.1703108200      1.0000000000
 S 1 
   1       0.4647474100      1.0000000000
 S 1 
   1       0.1850453600      1.0000000000
 P 4 
   1      63.2749548000      0.0120183316
   2      14.6270493800      0.0830054304
   3       4.4501223500      0.3199174388
   4       1.5275799600      0.7071554258
 P 1 
   1       0.5293511800      1.0000000000
 P 1 
   1       0.1747842100      1.0000000000
 D 1 
   1       1.2000000000      1.0000000000
  end;

 # Basis set for element : S 
 NewGTO S 
 S 7 
   1   60700.9281040000      0.0005238013
   2    9102.6106854000      0.0040506304
   3    2071.4166009000      0.0208270003
   4     586.0247682100      0.0814968475
   5     190.5539502100      0.2374911358
   6      67.6303842600      0.4472617145
   7      25.1273069100      0.3489191913
 S 3 
   1     112.5746301000      0.1004556993
   2      34.7955542200      0.4339117282
   3       6.5115556200     -1.2084330582
 S 2 
   1       3.2399032300      0.6749812922
   2       1.5477160900      0.3470879597
 S 1 
   1       0.4054103000      1.0000000000
 S 1 
   1       0.1455065100      1.0000000000
 P 6 
   1     564.3671602700      0.0025564845
   2     133.4262437900      0.0202874255
   3      42.4682711900      0.0927670112
   4      15.6165275800      0.2650208365
   5       6.1093988500      0.4486298663
   6       2.4404160200      0.3596369916
 P 1 
   1       0.8388220100      1.0000000000
 P 1 
   1       0.3128874700      1.0000000000
 P 1 
   1       0.1077010900      1.0000000000
 D 1 
   1       0.5500000000      1.0000000000
  end;

 # Basis set for element : V 
 NewGTO V 
 S 1 
   1  4239814.9912500000      1.0000000000
 S 1 
   1  1695925.9965000001      1.0000000000
 S 1 
   1  678370.3986000001      1.0000000000
 S 1 
   1  271348.1594400000      1.0000000000
 S 1 
   1   40672.0050780000      1.0000000000
 S 1 
   1    9257.0761385000      1.0000000000
 S 1 
   1    2622.7328773000      1.0000000000
 S 1 
   1     858.5948018500      1.0000000000
 S 1 
   1     314.1941865000      1.0000000000
 S 1 
   1     124.4786212700      1.0000000000
 S 1 
   1      50.4693993090      1.0000000000
 S 1 
   1      12.5138469110      1.0000000000
 S 1 
   1       5.3447758082      1.0000000000
 S 1 
   1       1.5755631295      1.0000000000
 S 1 
   1       0.6306903307      1.0000000000
 S 1 
   1       0.0879544416      1.0000000000
 S 1 
   1       0.0342969197      1.0000000000
 P 3 
   1    1450.0319327000     -0.0222847647
   2     343.7504988400     -0.1817959329
   3     110.8252170800     -0.8607412073
 P 3 
   1      41.8224645460     -0.2522537814
   2      17.0880737100     -0.4620379520
   3       7.2613218939     -0.3990010670
 P 1 
   1       2.9458145262      1.0000000000
 P 1 
   1       1.1650209680      1.0000000000
 P 1 
   1       0.4339937839      1.0000000000
 D 3 
   1      27.3603358640      0.0575501019
   2       7.4542765527      0.3023798347
   3       2.4632270217      0.7724212088
 D 1 
   1       0.8249954244      1.0000000000
 D 1 
   1       0.2526297057      1.0000000000
 P 1 
   1       0.1112480000      1.0000000000
 P 1 
   1       0.0363780000      1.0000000000
 F 1 
   1       1.8000000000      1.0000000000
  end;

---------------------------------
AUXILIARY/J BASIS SET INFORMATION
---------------------------------
There are 5 groups of distinct atoms

 Group   1 Type V   : 19s5p5d3f3g contracted to 8s5p5d2f3g pattern {121111111/11111/11111/21/111}
 Group   2 Type S   : 14s5p5d2f1g contracted to 8s4p3d1f1g pattern {71111111/2111/311/2/1}
 Group   3 Type O   : 12s5p4d2f1g contracted to 6s4p3d1f1g pattern {711111/2111/211/2/1}
 Group   4 Type C   : 12s5p4d2f1g contracted to 6s4p3d1f1g pattern {711111/2111/211/2/1}
 Group   5 Type H   : 5s2p1d contracted to 3s1p1d pattern {311/2/1}

Atom   0V    basis set group =>   1
Atom   1S    basis set group =>   2
Atom   2S    basis set group =>   2
Atom   3S    basis set group =>   2
Atom   4S    basis set group =>   2
Atom   5O    basis set group =>   3
Atom   6C    basis set group =>   4
Atom   7C    basis set group =>   4
Atom   8C    basis set group =>   4
Atom   9C    basis set group =>   4
Atom  10S    basis set group =>   2
Atom  11S    basis set group =>   2
Atom  12S    basis set group =>   2
Atom  13S    basis set group =>   2
Atom  14C    basis set group =>   4
Atom  15C    basis set group =>   4
Atom  16C    basis set group =>   4
Atom  17C    basis set group =>   4
Atom  18C    basis set group =>   4
Atom  19H    basis set group =>   5
Atom  20H    basis set group =>   5
Atom  21H    basis set group =>   5
Atom  22H    basis set group =>   5
Atom  23H    basis set group =>   5
Atom  24H    basis set group =>   5
Atom  25C    basis set group =>   4
Atom  26H    basis set group =>   5
Atom  27H    basis set group =>   5
Atom  28H    basis set group =>   5
Atom  29H    basis set group =>   5
Atom  30H    basis set group =>   5
Atom  31H    basis set group =>   5

-------------------------------------
AUXILIARY/J BASIS SET IN INPUT FORMAT
-------------------------------------

 # Auxiliary/J basis set for element : H 
 NewAuxJGTO H 
 S 3 
   1      15.6752927000      0.1007184237
   2       3.6063578000      0.3404257499
   3       1.2080016000      0.6491996172
 S 1 
   1       0.4726794000      1.0000000000
 S 1 
   1       0.2018100000      1.0000000000
 P 2 
   1       2.0281365000      0.5596620919
   2       0.5358730000      0.5596620919
 D 1 
   1       2.2165124000      1.0000000000
  end;

 # Auxiliary/J basis set for element : C 
 NewAuxJGTO C 
 S 7 
   1    1861.0916331000      0.0134602335
   2     642.9939764000      0.0299160374
   3     235.1105725000      0.1008649584
   4      90.7028894000      0.2370970548
   5      36.7794552000      0.3924037254
   6      15.6046273000      0.3195862154
   7       6.8907294000      0.0530104441
 S 1 
   1       3.1478850000     -1.0000000000
 S 1 
   1       1.4777287000      1.0000000000
 S 1 
   1       0.7076466000      1.0000000000
 S 1 
   1       0.3430122000      1.0000000000
 S 1 
   1       0.1669453000      1.0000000000
 P 2 
   1      13.5472892000     -0.6769313712
   2       5.4669419000     -0.3779500978
 P 1 
   1       2.1751721000      1.0000000000
 P 1 
   1       0.8582194000      1.0000000000
 P 1 
   1       0.3376720000      1.0000000000
 D 2 
   1       5.9287253000     -0.3533329857
   2       1.9809209000     -0.7456525731
 D 1 
   1       0.8055417000     -1.0000000000
 D 1 
   1       0.3531244000     -1.0000000000
 F 2 
   1       1.6755626000      0.6311076882
   2       0.5997536000      0.4968166032
 G 1 
   1       1.0024600000     -1.0000000000
  end;

 # Auxiliary/J basis set for element : O 
 NewAuxJGTO O 
 S 7 
   1    2876.8216605000      0.0168151159
   2    1004.7443032000      0.0340137548
   3     369.7579954000      0.1194951309
   4     142.9442404000      0.2664627624
   5      57.8366425000      0.4202764046
   6      24.3864983000      0.2765077335
   7      10.6622662000      0.0057008815
 S 1 
   1       4.8070437000     -1.0000000000
 S 1 
   1       2.2210770000      1.0000000000
 S 1 
   1       1.0447795000      1.0000000000
 S 1 
   1       0.4968425000      1.0000000000
 S 1 
   1       0.2371384000      1.0000000000
 P 2 
   1      64.2613382000     -0.2731534179
   2      16.3006076000     -0.8168011598
 P 1 
   1       4.3550542000      1.0000000000
 P 1 
   1       1.2019554000      1.0000000000
 P 1 
   1       0.3354196000      1.0000000000
 D 2 
   1       9.2146611000     -0.4661230638
   2       2.8435251000     -0.6600908911
 D 1 
   1       0.9955759000     -1.0000000000
 D 1 
   1       0.3649441000     -1.0000000000
 F 2 
   1       2.6420115000      0.5931563945
   2       0.7345613000      0.5931563945
 G 1 
   1       1.3931000000     -1.0000000000
  end;

 # Auxiliary/J basis set for element : S 
 NewAuxJGTO S 
 S 7 
   1    7399.0303145000      0.0295137551
   2    2710.1675859000      0.0559686311
   3    1034.3279062000      0.1764696370
   4     410.4645411000      0.3577969368
   5     168.9762502000      0.4299293578
   6      71.9687889000      0.1259148089
   7      31.6172683000     -0.0646025788
 S 1 
   1      14.2796836000      1.0000000000
 S 1 
   1       6.6060948000      1.0000000000
 S 1 
   1       3.1181477000      1.0000000000
 S 1 
   1       1.4954039000     -1.0000000000
 S 1 
   1       0.7254779000      1.0000000000
 S 1 
   1       0.3544216000      1.0000000000
 S 1 
   1       0.1735525000      1.0000000000
 P 2 
   1      12.6998799000      1.4059102813
   2       4.4295784000     -1.2124994202
 P 1 
   1       1.5232889000      1.0000000000
 P 1 
   1       0.5194667000     -1.0000000000
 P 1 
   1       0.1766547000     -1.0000000000
 D 3 
   1      16.8546461000      1.0295742104
   2       5.0810461000     -0.7461553923
   3       1.5102323000      0.8357028005
 D 1 
   1       0.4451331000      1.0000000000
 D 1 
   1       0.1308362000      1.0000000000
 F 2 
   1       1.0809860000      0.5572698934
   2       0.4161474000      0.5572698934
 G 1 
   1       0.6707100000     -1.0000000000
  end;

 # Auxiliary/J basis set for element : V 
 NewAuxJGTO V 
 S 12 
   1   11942.0842430000      0.0459866720
   2    2430.7110193000      0.1744615821
   3     841.0764301000      0.2900402792
   4     494.7508273000      0.1411212903
   5     291.0298903000      0.2660697186
   6     171.1940483000      0.0446365706
   7      59.2366916000     -0.0408204801
   8      34.8451117000      0.1394665381
   9      20.4971240000      0.2164746715
  10      12.0571314000      0.0864266611
  11       7.0924300000     -0.0568501658
  12       4.1720176000     -0.0126212852
 S 1 
   1       2.4541279000      1.0000000000
 S 1 
   1       1.4436046000      1.0000000000
 S 1 
   1       0.8491792000      1.0000000000
 S 1 
   1       0.2938336000      1.0000000000
 S 1 
   1       0.1728433000      1.0000000000
 S 1 
   1       0.1016725000      1.0000000000
 S 1 
   1       0.0598074000      1.0000000000
 P 1 
   1      16.7130979000     -1.0000000000
 P 1 
   1       4.7454037000     -1.0000000000
 P 1 
   1       1.3889998000      1.0000000000
 P 1 
   1       0.4142440000     -1.0000000000
 P 1 
   1       0.1243234000      1.0000000000
 D 1 
   1       7.7143225000      1.0000000000
 D 1 
   1       3.1170731000      1.0000000000
 D 1 
   1       1.2767950000     -1.0000000000
 D 1 
   1       0.5273386000      1.0000000000
 D 1 
   1       0.2184050000      1.0000000000
 F 2 
   1       3.1309344000     -1.0825667766
   2       1.0419780000      0.1809223232
 F 1 
   1       0.3559044000      1.0000000000
 G 1 
   1       8.7130110000      1.0000000000
 G 1 
   1       2.7493872000      1.0000000000
 G 1 
   1       0.8775089000      1.0000000000
  end;



           ************************************************************
           *        Program running with 8 parallel MPI-processes     *
           *              working on a common directory               *
           ************************************************************
------------------------------------------------------------------------------
                           ORCA GTO INTEGRAL CALCULATION
                           -- RI-GTO INTEGRALS CHOSEN --
------------------------------------------------------------------------------
------------------------------------------------------------------------------
                   ___                                                        
                  /   \      - P O W E R E D   B Y -                         
                 /     \                                                     
                 |  |  |   _    _      __       _____    __    __             
                 |  |  |  | |  | |    /  \     |  _  \  |  |  /  |          
                  \  \/   | |  | |   /    \    | | | |  |  | /  /          
                 / \  \   | |__| |  /  /\  \   | |_| |  |  |/  /          
                |  |  |   |  __  | /  /__\  \  |    /   |      \           
                |  |  |   | |  | | |   __   |  |    \   |  |\   \          
                \     /   | |  | | |  |  |  |  | |\  \  |  | \   \       
                 \___/    |_|  |_| |__|  |__|  |_| \__\ |__|  \__/        
                                                                              
                      - O R C A' S   B I G   F R I E N D -                    
                                      &                                       
                       - I N T E G R A L  F E E D E R -                       
                                                                              
 v1 FN, 2020, v2 2021                                                         
------------------------------------------------------------------------------


Reading SHARK input file input_10.SHARKINP.tmp ... ok
----------------------
SHARK INTEGRAL PACKAGE
----------------------

Number of atoms                             ...     32
Number of basis functions                   ...    517
Number of shells                            ...    255
Maximum angular momentum                    ...      3
Integral batch strategy                     ... SHARK/LIBINT Hybrid
RI-J (if used) integral strategy            ... SPLIT-RIJ (Revised 2003 algorithm where possible)
Printlevel                                  ...      1
Contraction scheme used                     ... SEGMENTED contraction
Coulomb Range Separation                    ... NOT USED
Exchange Range Separation                   ... NOT USED
Finite Nucleus Model                        ... NOT USED
Auxiliary Coulomb fitting basis             ... AVAILABLE
   # of basis functions in Aux-J            ...   1168
   # of shells in Aux-J                     ...    384
   Maximum angular momentum in Aux-J        ...      4
Auxiliary J/K fitting basis                 ... NOT available
Auxiliary Correlation fitting basis         ... NOT available
Auxiliary 'external' fitting basis          ... NOT available
Integral threshold                          ...     1.000000e-10
Primitive cut-off                           ...     1.000000e-11
Primitive pair pre-selection threshold      ...     1.000000e-11

Calculating pre-screening integrals         ... done (  0.1 sec) Dimension = 255
Organizing shell pair data                  ... done (  0.1 sec)
Shell pair information
Total number of shell pairs                 ...     32640
Shell pairs after pre-screening             ...     17835
Total number of primitive shell pairs       ...    123863
Primitive shell pairs kept                  ...     41740
          la=0 lb=0:   5383 shell pairs
          la=1 lb=0:   7069 shell pairs
          la=1 lb=1:   2302 shell pairs
          la=2 lb=0:   1673 shell pairs
          la=2 lb=1:   1119 shell pairs
          la=2 lb=2:    154 shell pairs
          la=3 lb=0:     70 shell pairs
          la=3 lb=1:     52 shell pairs
          la=3 lb=2:     12 shell pairs
          la=3 lb=3:      1 shell pairs

Calculating one electron integrals          ... done (  0.0 sec)
Calculating RI/J V-Matrix + Cholesky decomp.... done (  0.1 sec)
Calculating Nuclear repulsion               ... done (  0.0 sec) ENN=   3211.640201795229 Eh

SHARK setup successfully completed in   0.5 seconds

Maximum memory used throughout the entire GTOINT-calculation: 31.6 MB


           ************************************************************
           *        Program running with 8 parallel MPI-processes     *
           *              working on a common directory               *
           ************************************************************
-------------------------------------------------------------------------------
                                 ORCA SCF
-------------------------------------------------------------------------------

------------
SCF SETTINGS
------------
Hamiltonian:
 Density Functional     Method          .... DFT(GTOs)
 Exchange Functional    Exchange        .... B88
   X-Alpha parameter    XAlpha          ....  0.666667
   Becke's b parameter  XBeta           ....  0.004200
 Correlation Functional Correlation     .... LYP
 LDA part of GGA corr.  LDAOpt          .... VWN-5
 Gradients option       PostSCFGGA      .... off
 Hybrid DFT is turned on
   Fraction HF Exchange ScalHFX         ....  0.200000
   Scaling of DF-GGA-X  ScalDFX         ....  0.720000
   Scaling of DF-GGA-C  ScalDFC         ....  0.810000
   Scaling of DF-LDA-C  ScalLDAC        ....  1.000000
   Perturbative correction              ....  0.000000
   Density functional embedding theory  .... OFF
   NL short-range parameter             ....  4.800000
 RI-approximation to the Coulomb term is turned on
   Number of AuxJ basis functions       .... 1168
   RIJ-COSX (HFX calculated with COS-X)).... on


General Settings:
 Integral files         IntName         .... input_10
 Hartree-Fock type      HFTyp           .... UHF
 Total Charge           Charge          ....   -2
 Multiplicity           Mult            ....    2
 Number of Electrons    NEL             ....  233
 Basis Dimension        Dim             ....  517
 Nuclear Repulsion      ENuc            ....   3211.6402017952 Eh

Convergence Acceleration:
 DIIS                   CNVDIIS         .... on
   Start iteration      DIISMaxIt       ....    12
   Startup error        DIISStart       ....  0.200000
   # of expansion vecs  DIISMaxEq       ....     5
   Bias factor          DIISBfac        ....   1.050
   Max. coefficient     DIISMaxC        ....  10.000
 Trust-Rad. Augm. Hess. CNVTRAH         .... auto
   Auto Start mean grad. ratio tolernc. ....  1.125000
   Auto Start start iteration           ....    20
   Auto Start num. interpolation iter.  ....    10
   Max. Number of Micro iterations      ....    16
   Max. Number of Macro iterations      .... Maxiter - #DIIS iter
   Number of Davidson start vectors     ....     2
   Converg. threshold I  (grad. norm)   ....   5.000e-05
   Converg. threshold II (energy diff.) ....   1.000e-06
   Grad. Scal. Fac. for Micro threshold ....   0.100
   Minimum threshold for Micro iter.    ....   0.010
   NR start threshold (gradient norm)   ....   0.001
   Initial trust radius                 ....   0.400
   Minimum AH scaling param. (alpha)    ....   1.000
   Maximum AH scaling param. (alpha)    .... 1000.000
   Orbital update algorithm             .... Taylor
   White noise on init. David. guess    .... on
   Maximum white noise                  ....   0.010
   Quad. conv. algorithm                .... NR
 SOSCF                  CNVSOSCF        .... off
 Level Shifting         CNVShift        .... on
   Level shift para.    LevelShift      ....    0.2500
   Turn off err/grad.   ShiftErr        ....    0.0010
 Zerner damping         CNVZerner       .... off
 Static damping         CNVDamp         .... on
   Fraction old density DampFac         ....    0.7000
   Max. Damping (<1)    DampMax         ....    0.9800
   Min. Damping (>=0)   DampMin         ....    0.0000
   Turn off err/grad.   DampErr         ....    0.1000
 Fernandez-Rico         CNVRico         .... off

SCF Procedure:
 Maximum # iterations   MaxIter         ....   125
 SCF integral mode      SCFMode         .... Direct
   Integral package                     .... SHARK and LIBINT hybrid scheme
 Reset frequency        DirectResetFreq ....    20
 Integral Threshold     Thresh          ....  1.000e-10 Eh
 Primitive CutOff       TCut            ....  1.000e-11 Eh

Convergence Tolerance:
 Convergence Check Mode ConvCheckMode   .... Total+1el-Energy
 Convergence forced     ConvForced      .... 0
 Energy Change          TolE            ....  1.000e-06 Eh
 1-El. energy change                    ....  1.000e-03 Eh
 DIIS Error             TolErr          ....  1.000e-06


Diagonalization of the overlap matrix:
Smallest eigenvalue                        ... 1.813e-04
Time for diagonalization                   ...    0.106 sec
Threshold for overlap eigenvalues          ... 1.000e-08
Number of eigenvalues below threshold      ... 0
Time for construction of square roots      ...    0.117 sec
Total time needed                          ...    0.226 sec

Time for model grid setup =    0.269 sec

------------------------------
INITIAL GUESS: MODEL POTENTIAL
------------------------------
Loading Hartree-Fock densities                     ... done
Calculating cut-offs                               ... done
Initializing the effective Hamiltonian             ... done
Setting up the integral package (SHARK)            ... done
Starting the Coulomb interaction                   ... done (   0.2 sec)
Reading the grid                                   ... done
Mapping shells                                     ... done
Starting the XC term evaluation                    ... done (   0.1 sec)
  promolecular density results
     # of electrons  =    230.988310410
     EX              =   -307.542190103
     EC              =     -9.026477740
     EX+EC           =   -316.568667843
Transforming the Hamiltonian                       ... done (   0.1 sec)
Diagonalizing the Hamiltonian                      ... done (   0.1 sec)
Back transforming the eigenvectors                 ... done (   0.0 sec)
Now organizing SCF variables                       ... done
                      ------------------
                      INITIAL GUESS DONE (   0.8 sec)
                      ------------------
-------------------
DFT GRID GENERATION
-------------------

General Integration Accuracy     IntAcc      ... 4.388
Radial Grid Type                 RadialGrid  ... OptM3 with GC (2021)
Angular Grid (max. ang.)         AngularGrid ... 4 (Lebedev-302)
Angular grid pruning method      GridPruning ... 4 (adaptive)
Weight generation scheme         WeightScheme... Becke
Basis function cutoff            BFCut       ... 1.0000e-10
Integration weight cutoff        WCut        ... 1.0000e-14
Angular grids for H and He will be reduced by one unit
Partially contracted basis set               ... off
Rotationally invariant grid construction     ... off

Total number of grid points                  ...   184078
Total number of batches                      ...     2894
Average number of points per batch           ...       63
Average number of grid points per atom       ...     5752
Time for grid setup =    1.333 sec

--------------------
COSX GRID GENERATION
--------------------

GRIDX 1
-------
General Integration Accuracy     IntAcc      ... 3.816
Radial Grid Type                 RadialGrid  ... OptM3 with GC (2021)
Angular Grid (max. ang.)         AngularGrid ... 1 (Lebedev-50)
Angular grid pruning method      GridPruning ... 4 (adaptive)
Weight generation scheme         WeightScheme... Becke
Basis function cutoff            BFCut       ... 1.0000e-10
Integration weight cutoff        WCut        ... 1.0000e-14
Angular grids for H and He will be reduced by one unit
Partially contracted basis set               ... on
Rotationally invariant grid construction     ... off

Total number of grid points                  ...    22798
Total number of batches                      ...      374
Average number of points per batch           ...       60
Average number of grid points per atom       ...      712
UseSFitting                                  ... on

GRIDX 2
-------
General Integration Accuracy     IntAcc      ... 4.020
Radial Grid Type                 RadialGrid  ... OptM3 with GC (2021)
Angular Grid (max. ang.)         AngularGrid ... 2 (Lebedev-110)
Angular grid pruning method      GridPruning ... 4 (adaptive)
Weight generation scheme         WeightScheme... Becke
Basis function cutoff            BFCut       ... 1.0000e-10
Integration weight cutoff        WCut        ... 1.0000e-14
Angular grids for H and He will be reduced by one unit
Partially contracted basis set               ... on
Rotationally invariant grid construction     ... off

Total number of grid points                  ...    49101
Total number of batches                      ...      785
Average number of points per batch           ...       62
Average number of grid points per atom       ...     1534
UseSFitting                                  ... on

GRIDX 3
-------
General Integration Accuracy     IntAcc      ... 4.338
Radial Grid Type                 RadialGrid  ... OptM3 with GC (2021)
Angular Grid (max. ang.)         AngularGrid ... 3 (Lebedev-194)
Angular grid pruning method      GridPruning ... 4 (adaptive)
Weight generation scheme         WeightScheme... Becke
Basis function cutoff            BFCut       ... 1.0000e-10
Integration weight cutoff        WCut        ... 1.0000e-14
Angular grids for H and He will be reduced by one unit
Partially contracted basis set               ... on
Rotationally invariant grid construction     ... off

Total number of grid points                  ...   112191
Total number of batches                      ...     1768
Average number of points per batch           ...       63
Average number of grid points per atom       ...     3506
UseSFitting                                  ... on

Time for X-Grid setup             =    1.272 sec

--------------
SCF ITERATIONS
--------------
ITER       Energy         Delta-E        Max-DP      RMS-DP      [F,P]     Damp
               ***  Starting incremental Fock matrix formation  ***
  0  -4592.0158675255   0.000000000000 0.07011729  0.00090879  0.2357484 0.7000
  1  -4592.2991632521  -0.283295726585 0.11210307  0.00090614  0.1560007 0.7000
                               ***Turning on DIIS***
  2  -4592.4454249506  -0.146261698509 0.08057030  0.00057097  0.1091593 0.7000
  3  -4592.5257408263  -0.080315875699 0.11237843  0.00090181  0.0772166 0.0000
  4  -4592.7158799902  -0.190139163838 0.06744026  0.00048419  0.0150148 0.0000
  5  -4592.7214207849  -0.005540794757 0.01202688  0.00010305  0.0103207 0.0000
  6  -4592.7225959678  -0.001175182837 0.00189733  0.00004406  0.0028507 0.0000
  7  -4592.7227889312  -0.000192963445 0.00140288  0.00002183  0.0014193 0.0000
  8  -4592.7228535947  -0.000064663444 0.00128317  0.00001579  0.0011352 0.0000
  9  -4592.7228893425  -0.000035747834 0.00238273  0.00002219  0.0009187 0.0000
               *** Restarting incremental Fock matrix formation ***
                                   *** Resetting DIIS ***
 10  -4592.7229171175  -0.000027775007 0.00145217  0.00001468  0.0007977 0.0000
 11  -4592.7228864374   0.000030680081 0.00034095  0.00000390  0.0023034 0.0000
 12  -4592.7229226665  -0.000036229044 0.00052073  0.00000586  0.0009802 0.0000
 13  -4592.7229303796  -0.000007713106 0.00042839  0.00000401  0.0003260 0.0000
 14  -4592.7229331290  -0.000002749392 0.00033163  0.00000282  0.0001875 0.0000
 15  -4592.7229338322  -0.000000703241 0.00015165  0.00000162  0.0001135 0.0000
 16  -4592.7229340062  -0.000000173955 0.00017976  0.00000153  0.0001095 0.0000
                 **** Energy Check signals convergence ****

               *****************************************************
               *                     SUCCESS                       *
               *           SCF CONVERGED AFTER  17 CYCLES          *
               *****************************************************

Old exchange energy                            =    -61.761302661 Eh
New exchange energy                            =    -61.761314049 Eh
Exchange energy change after final integration =     -0.000011388 Eh
Total energy after final integration           =  -4592.722945648 Eh
Final COS-X integration done in                =    12.656 sec

----------------
TOTAL SCF ENERGY
----------------

Total Energy       :        -4592.72294565 Eh         -124974.34492 eV

Components:
Nuclear Repulsion  :         3211.64020180 Eh           87393.17287 eV
Electronic Energy  :        -7804.36314744 Eh         -212367.51780 eV
One Electron Energy:       -12787.05406661 Eh         -347953.43076 eV
Two Electron Energy:         4982.69091917 Eh          135585.91297 eV
Max COSX asymmetry :            0.00000126 Eh               0.00003 eV

Virial components:
Potential Energy   :        -9173.78804809 Eh         -249631.46381 eV
Kinetic Energy     :         4581.06510244 Eh          124657.11888 eV
Virial Ratio       :            2.00254479


DFT components:
N(Alpha)           :      117.000169680120 electrons
N(Beta)            :      116.000169691827 electrons
N(Total)           :      233.000339371947 electrons
E(X)               :     -245.483627855200 Eh       
E(C)               :      -10.624370588078 Eh       
E(XC)              :     -256.107998443278 Eh       
DFET-embed. en.    :        0.000000000000 Eh       

---------------
SCF CONVERGENCE
---------------

  Last Energy change         ...   -2.5417e-07  Tolerance :   1.0000e-06
  Last MAX-Density change    ...    0.0000e+00  Tolerance :   1.0000e-05
  Last RMS-Density change    ...    0.0000e+00  Tolerance :   1.0000e-06
  Last DIIS Error            ...    2.1498e-05  Tolerance :   1.0000e-06

             **** THE GBW FILE WAS UPDATED (input_10.gbw) ****
             **** DENSITY input_10.scfp WAS UPDATED ****
             **** ENERGY FILE WAS UPDATED (input_10.en.tmp) ****
----------------------
UHF SPIN CONTAMINATION
----------------------

Warning: in a DFT calculation there is little theoretical justification to 
         calculate <S**2> as in Hartree-Fock theory. We will do it anyways
         but you should keep in mind that the values have only limited relevance

Expectation value of <S**2>     :     0.764929
Ideal value S*(S+1) for S=0.5   :     0.750000
Deviation                       :     0.014929

             **** THE GBW FILE WAS UPDATED (input_10.gbw) ****
             **** DENSITY input_10.scfp WAS UPDATED ****
----------------
ORBITAL ENERGIES
----------------
                 SPIN UP ORBITALS
  NO   OCC          E(Eh)            E(eV) 
   0   1.0000    -196.640161     -5350.8508 
   1   1.0000     -88.677373     -2413.0340 
   2   1.0000     -88.677312     -2413.0323 
   3   1.0000     -88.675667     -2412.9876 
   4   1.0000     -88.675595     -2412.9856 
   5   1.0000     -88.612202     -2411.2606 
   6   1.0000     -88.612175     -2411.2599 
   7   1.0000     -88.611723     -2411.2476 
   8   1.0000     -88.611632     -2411.2451 
   9   1.0000     -22.015962      -599.0848 
  10   1.0000     -18.856912      -513.1227 
  11   1.0000     -18.522788      -504.0307 
  12   1.0000     -18.517013      -503.8735 
  13   1.0000     -18.516974      -503.8725 
  14   1.0000     -10.017827      -272.5989 
  15   1.0000     -10.017757      -272.5970 
  16   1.0000     -10.015321      -272.5307 
  17   1.0000     -10.015212      -272.5278 
  18   1.0000     -10.005308      -272.2583 
  19   1.0000     -10.005226      -272.2560 
  20   1.0000      -9.992255      -271.9031 
  21   1.0000      -9.992172      -271.9008 
  22   1.0000      -9.990747      -271.8621 
  23   1.0000      -9.990668      -271.8599 
  24   1.0000      -7.730733      -210.3639 
  25   1.0000      -7.730699      -210.3630 
  26   1.0000      -7.729535      -210.3313 
  27   1.0000      -7.729472      -210.3296 
  28   1.0000      -7.666789      -208.6239 
  29   1.0000      -7.666754      -208.6230 
  30   1.0000      -7.666000      -208.6025 
  31   1.0000      -7.665954      -208.6012 
  32   1.0000      -5.696039      -154.9971 
  33   1.0000      -5.696005      -154.9962 
  34   1.0000      -5.694727      -154.9614 
  35   1.0000      -5.694660      -154.9596 
  36   1.0000      -5.692060      -154.8888 
  37   1.0000      -5.692017      -154.8877 
  38   1.0000      -5.690930      -154.8581 
  39   1.0000      -5.690869      -154.8564 
  40   1.0000      -5.685500      -154.7103 
  41   1.0000      -5.685465      -154.7094 
  42   1.0000      -5.684263      -154.6767 
  43   1.0000      -5.684199      -154.6749 
  44   1.0000      -5.631604      -153.2437 
  45   1.0000      -5.631565      -153.2427 
  46   1.0000      -5.630874      -153.2239 
  47   1.0000      -5.630834      -153.2228 
  48   1.0000      -5.625223      -153.0701 
  49   1.0000      -5.625180      -153.0689 
  50   1.0000      -5.624756      -153.0574 
  51   1.0000      -5.624738      -153.0569 
  52   1.0000      -5.624442      -153.0488 
  53   1.0000      -5.624378      -153.0471 
  54   1.0000      -5.623994      -153.0367 
  55   1.0000      -5.623936      -153.0351 
  56   1.0000      -2.409592       -65.5683 
  57   1.0000      -1.450815       -39.4787 
  58   1.0000      -1.439403       -39.1681 
  59   1.0000      -1.438317       -39.1386 
  60   1.0000      -0.643057       -17.4985 
  61   1.0000      -0.642981       -17.4964 
  62   1.0000      -0.617931       -16.8148 
  63   1.0000      -0.593499       -16.1499 
  64   1.0000      -0.593058       -16.1379 
  65   1.0000      -0.575134       -15.6502 
  66   1.0000      -0.575023       -15.6472 
  67   1.0000      -0.491260       -13.3679 
  68   1.0000      -0.489375       -13.3166 
  69   1.0000      -0.487135       -13.2556 
  70   1.0000      -0.485949       -13.2233 
  71   1.0000      -0.422771       -11.5042 
  72   1.0000      -0.419939       -11.4271 
  73   1.0000      -0.412202       -11.2166 
  74   1.0000      -0.407017       -11.0755 
  75   1.0000      -0.375990       -10.2312 
  76   1.0000      -0.372857       -10.1459 
  77   1.0000      -0.291801        -7.9403 
  78   1.0000      -0.291621        -7.9354 
  79   1.0000      -0.277368        -7.5476 
  80   1.0000      -0.277101        -7.5403 
  81   1.0000      -0.260123        -7.0783 
  82   1.0000      -0.255241        -6.9455 
  83   1.0000      -0.241594        -6.5741 
  84   1.0000      -0.238813        -6.4984 
  85   1.0000      -0.195222        -5.3123 
  86   1.0000      -0.192168        -5.2292 
  87   1.0000      -0.191929        -5.2226 
  88   1.0000      -0.191154        -5.2016 
  89   1.0000      -0.184607        -5.0234 
  90   1.0000      -0.184368        -5.0169 
  91   1.0000      -0.180898        -4.9225 
  92   1.0000      -0.150720        -4.1013 
  93   1.0000      -0.149738        -4.0746 
  94   1.0000      -0.143299        -3.8994 
  95   1.0000      -0.143234        -3.8976 
  96   1.0000      -0.141688        -3.8555 
  97   1.0000      -0.097552        -2.6545 
  98   1.0000      -0.095958        -2.6112 
  99   1.0000      -0.089393        -2.4325 
 100   1.0000      -0.083269        -2.2659 
 101   1.0000      -0.081469        -2.2169 
 102   1.0000      -0.079766        -2.1706 
 103   1.0000      -0.069447        -1.8897 
 104   1.0000      -0.050142        -1.3644 
 105   1.0000      -0.039051        -1.0626 
 106   1.0000      -0.037017        -1.0073 
 107   1.0000      -0.035735        -0.9724 
 108   1.0000      -0.031739        -0.8637 
 109   1.0000      -0.012902        -0.3511 
 110   1.0000      -0.004231        -0.1151 
 111   1.0000      -0.003196        -0.0870 
 112   1.0000       0.006289         0.1711 
 113   1.0000       0.010684         0.2907 
 114   1.0000       0.016382         0.4458 
 115   1.0000       0.033676         0.9164 
 116   1.0000       0.059878         1.6294 
 117   0.0000       0.187990         5.1155 
 118   0.0000       0.195485         5.3194 
 119   0.0000       0.196185         5.3385 
 120   0.0000       0.196472         5.3463 
 121   0.0000       0.211293         5.7496 
 122   0.0000       0.212831         5.7914 
 123   0.0000       0.218492         5.9455 
 124   0.0000       0.225012         6.1229 
 125   0.0000       0.227490         6.1903 
 126   0.0000       0.234553         6.3825 
 127   0.0000       0.241260         6.5650 
 128   0.0000       0.243477         6.6253 
 129   0.0000       0.243515         6.6264 
 130   0.0000       0.246449         6.7062 
 131   0.0000       0.247549         6.7362 
 132   0.0000       0.253637         6.9018 
 133   0.0000       0.254117         6.9149 
 134   0.0000       0.257378         7.0036 
 135   0.0000       0.260928         7.1002 
 136   0.0000       0.271597         7.3905 
 137   0.0000       0.275920         7.5082 
 138   0.0000       0.277896         7.5619 
 139   0.0000       0.282424         7.6851 
 140   0.0000       0.283876         7.7247 
 141   0.0000       0.285585         7.7712 
 142   0.0000       0.285961         7.7814 
 143   0.0000       0.293141         7.9768 
 144   0.0000       0.306432         8.3384 
 145   0.0000       0.308404         8.3921 
 146   0.0000       0.310213         8.4413 
 147   0.0000       0.319658         8.6983 
 148   0.0000       0.326314         8.8795 
 149   0.0000       0.328761         8.9461 
 150   0.0000       0.347846         9.4654 
 151   0.0000       0.360536         9.8107 
 152   0.0000       0.374519        10.1912 
 153   0.0000       0.374981        10.2037 
 154   0.0000       0.393609        10.7106 
 155   0.0000       0.394800        10.7431 
 156   0.0000       0.395792        10.7701 
 157   0.0000       0.396864        10.7992 
 158   0.0000       0.401965        10.9380 
 159   0.0000       0.413112        11.2413 
 160   0.0000       0.423826        11.5329 
 161   0.0000       0.424598        11.5539 
 162   0.0000       0.426040        11.5931 
 163   0.0000       0.429436        11.6855 
 164   0.0000       0.444069        12.0837 
 165   0.0000       0.452740        12.3197 
 166   0.0000       0.455977        12.4078 
 167   0.0000       0.456910        12.4332 
 168   0.0000       0.460639        12.5346 
 169   0.0000       0.461852        12.5676 
 170   0.0000       0.471434        12.8284 
 171   0.0000       0.476021        12.9532 
 172   0.0000       0.479029        13.0350 
 173   0.0000       0.483427        13.1547 
 174   0.0000       0.493077        13.4173 
 175   0.0000       0.494849        13.4655 
 176   0.0000       0.498289        13.5591 
 177   0.0000       0.503296        13.6954 
 178   0.0000       0.505113        13.7448 
 179   0.0000       0.511038        13.9060 
 180   0.0000       0.512251        13.9390 
 181   0.0000       0.516419        14.0525 
 182   0.0000       0.520681        14.1685 
 183   0.0000       0.522847        14.2274 
 184   0.0000       0.534519        14.5450 
 185   0.0000       0.547244        14.8913 
 186   0.0000       0.550423        14.9778 
 187   0.0000       0.551909        15.0182 
 188   0.0000       0.553137        15.0516 
 189   0.0000       0.558688        15.2027 
 190   0.0000       0.561380        15.2759 
 191   0.0000       0.570623        15.5274 
 192   0.0000       0.575014        15.6469 
 193   0.0000       0.575058        15.6481 
 194   0.0000       0.576691        15.6926 
 195   0.0000       0.580671        15.8009 
 196   0.0000       0.583109        15.8672 
 197   0.0000       0.585034        15.9196 
 198   0.0000       0.587557        15.9882 
 199   0.0000       0.589728        16.0473 
 200   0.0000       0.591458        16.0944 
 201   0.0000       0.595431        16.2025 
 202   0.0000       0.604119        16.4389 
 203   0.0000       0.605054        16.4644 
 204   0.0000       0.614693        16.7267 
 205   0.0000       0.616977        16.7888 
 206   0.0000       0.624012        16.9802 
 207   0.0000       0.624556        16.9950 
 208   0.0000       0.627438        17.0735 
 209   0.0000       0.633926        17.2500 
 210   0.0000       0.640250        17.4221 
 211   0.0000       0.642358        17.4794 
 212   0.0000       0.645931        17.5767 
 213   0.0000       0.649567        17.6756 
 214   0.0000       0.654444        17.8083 
 215   0.0000       0.657670        17.8961 
 216   0.0000       0.658216        17.9110 
 217   0.0000       0.663450        18.0534 
 218   0.0000       0.667981        18.1767 
 219   0.0000       0.674856        18.3638 
 220   0.0000       0.679909        18.5013 
 221   0.0000       0.684974        18.6391 
 222   0.0000       0.692868        18.8539 
 223   0.0000       0.708007        19.2658 
 224   0.0000       0.718411        19.5490 
 225   0.0000       0.722720        19.6662 
 226   0.0000       0.734883        19.9972 
 227   0.0000       0.741426        20.1752 
 228   0.0000       0.749006        20.3815 
 229   0.0000       0.758062        20.6279 
 230   0.0000       0.770491        20.9661 
 231   0.0000       0.772173        21.0119 
 232   0.0000       0.778595        21.1866 
 233   0.0000       0.798721        21.7343 
 234   0.0000       0.801939        21.8219 
 235   0.0000       0.838277        22.8107 
 236   0.0000       0.861775        23.4501 
 237   0.0000       0.869247        23.6534 
 238   0.0000       0.872612        23.7450 
 239   0.0000       0.885493        24.0955 
 240   0.0000       0.890163        24.2226 
 241   0.0000       0.903523        24.5861 
 242   0.0000       0.910510        24.7762 
 243   0.0000       0.913010        24.8443 
 244   0.0000       0.921538        25.0763 
 245   0.0000       0.921972        25.0881 
 246   0.0000       0.931106        25.3367 
 247   0.0000       0.950147        25.8548 
 248   0.0000       0.962382        26.1878 
 249   0.0000       0.972912        26.4743 
 250   0.0000       0.976924        26.5835 
 251   0.0000       0.982031        26.7224 
 252   0.0000       0.983492        26.7622 
 253   0.0000       0.988119        26.8881 
 254   0.0000       1.000439        27.2233 
 255   0.0000       1.002726        27.2856 
 256   0.0000       1.003768        27.3139 
 257   0.0000       1.019688        27.7471 
 258   0.0000       1.029096        28.0031 
 259   0.0000       1.029305        28.0088 
 260   0.0000       1.055396        28.7188 
 261   0.0000       1.056973        28.7617 
 262   0.0000       1.057990        28.7894 
 263   0.0000       1.060482        28.8572 
 264   0.0000       1.076207        29.2851 
 265   0.0000       1.094261        29.7764 
 266   0.0000       1.100514        29.9465 
 267   0.0000       1.120136        30.4804 
 268   0.0000       1.120752        30.4972 
 269   0.0000       1.123391        30.5690 
 270   0.0000       1.125888        30.6370 
 271   0.0000       1.132356        30.8130 
 272   0.0000       1.133353        30.8401 
 273   0.0000       1.136948        30.9379 
 274   0.0000       1.137883        30.9634 
 275   0.0000       1.149888        31.2901 
 276   0.0000       1.155054        31.4306 
 277   0.0000       1.160793        31.5868 
 278   0.0000       1.182448        32.1760 
 279   0.0000       1.192742        32.4562 
 280   0.0000       1.201334        32.6900 
 281   0.0000       1.238489        33.7010 
 282   0.0000       1.238760        33.7084 
 283   0.0000       1.272524        34.6271 
 284   0.0000       1.273726        34.6598 
 285   0.0000       1.289619        35.0923 
 286   0.0000       1.299146        35.3516 
 287   0.0000       1.303253        35.4633 
 288   0.0000       1.315927        35.8082 
 289   0.0000       1.350773        36.7564 
 290   0.0000       1.357082        36.9281 
 291   0.0000       1.357626        36.9429 
 292   0.0000       1.373975        37.3878 
 293   0.0000       1.407497        38.2999 
 294   0.0000       1.415403        38.5151 
 295   0.0000       1.426138        38.8072 
 296   0.0000       1.442527        39.2532 
 297   0.0000       1.444465        39.3059 
 298   0.0000       1.460219        39.7346 
 299   0.0000       1.470925        40.0259 
 300   0.0000       1.471227        40.0341 
 301   0.0000       1.485234        40.4153 
 302   0.0000       1.485421        40.4204 
 303   0.0000       1.489035        40.5187 
 304   0.0000       1.493133        40.6302 
 305   0.0000       1.518132        41.3105 
 306   0.0000       1.521964        41.4148 
 307   0.0000       1.529328        41.6151 
 308   0.0000       1.548471        42.1360 
 309   0.0000       1.551095        42.2074 
 310   0.0000       1.564823        42.5810 
 311   0.0000       1.565319        42.5945 
 312   0.0000       1.601329        43.5744 
 313   0.0000       1.602703        43.6118 
 314   0.0000       1.612293        43.8727 
 315   0.0000       1.616922        43.9987 
 316   0.0000       1.623993        44.1911 
 317   0.0000       1.639482        44.6126 
 318   0.0000       1.660299        45.1790 
 319   0.0000       1.665206        45.3126 
 320   0.0000       1.667602        45.3778 
 321   0.0000       1.676581        45.6221 
 322   0.0000       1.676988        45.6332 
 323   0.0000       1.694845        46.1191 
 324   0.0000       1.703060        46.3426 
 325   0.0000       1.709931        46.5296 
 326   0.0000       1.724239        46.9189 
 327   0.0000       1.737759        47.2868 
 328   0.0000       1.741855        47.3983 
 329   0.0000       1.752012        47.6747 
 330   0.0000       1.757528        47.8248 
 331   0.0000       1.769097        48.1396 
 332   0.0000       1.773421        48.2572 
 333   0.0000       1.794600        48.8335 
 334   0.0000       1.794715        48.8367 
 335   0.0000       1.800285        48.9882 
 336   0.0000       1.809985        49.2522 
 337   0.0000       1.822814        49.6013 
 338   0.0000       1.830818        49.8191 
 339   0.0000       1.841298        50.1043 
 340   0.0000       1.842578        50.1391 
 341   0.0000       1.850475        50.3540 
 342   0.0000       1.852509        50.4093 
 343   0.0000       1.854678        50.4684 
 344   0.0000       1.859417        50.5973 
 345   0.0000       1.874117        50.9973 
 346   0.0000       1.875594        51.0375 
 347   0.0000       1.920423        52.2574 
 348   0.0000       1.929431        52.5025 
 349   0.0000       1.932707        52.5916 
 350   0.0000       1.937855        52.7317 
 351   0.0000       1.949599        53.0513 
 352   0.0000       1.949732        53.0549 
 353   0.0000       1.962268        53.3960 
 354   0.0000       1.963316        53.4245 
 355   0.0000       1.967203        53.5303 
 356   0.0000       1.967973        53.5513 
 357   0.0000       2.010646        54.7125 
 358   0.0000       2.012406        54.7604 
 359   0.0000       2.040932        55.5366 
 360   0.0000       2.050128        55.7868 
 361   0.0000       2.067516        56.2600 
 362   0.0000       2.068715        56.2926 
 363   0.0000       2.070450        56.3398 
 364   0.0000       2.073651        56.4269 
 365   0.0000       2.107864        57.3579 
 366   0.0000       2.111623        57.4602 
 367   0.0000       2.123311        57.7782 
 368   0.0000       2.126951        57.8773 
 369   0.0000       2.155082        58.6428 
 370   0.0000       2.160655        58.7944 
 371   0.0000       2.161911        58.8286 
 372   0.0000       2.169351        59.0310 
 373   0.0000       2.187520        59.5254 
 374   0.0000       2.193866        59.6981 
 375   0.0000       2.199875        59.8616 
 376   0.0000       2.206254        60.0352 
 377   0.0000       2.206638        60.0457 
 378   0.0000       2.212498        60.2051 
 379   0.0000       2.226780        60.5938 
 380   0.0000       2.232399        60.7467 
 381   0.0000       2.238859        60.9224 
 382   0.0000       2.240312        60.9620 
 383   0.0000       2.264945        61.6323 
 384   0.0000       2.275267        61.9132 
 385   0.0000       2.283325        62.1324 
 386   0.0000       2.289699        62.3059 
 387   0.0000       2.291472        62.3541 
 388   0.0000       2.295089        62.4526 
 389   0.0000       2.314401        62.9780 
 390   0.0000       2.321125        63.1610 
 391   0.0000       2.352233        64.0075 
 392   0.0000       2.354654        64.0734 
 393   0.0000       2.354876        64.0794 
 394   0.0000       2.399957        65.3061 
 395   0.0000       2.405383        65.4538 
 396   0.0000       2.406091        65.4731 
 397   0.0000       2.407695        65.5167 
 398   0.0000       2.413504        65.6748 
 399   0.0000       2.444621        66.5215 
 400   0.0000       2.446536        66.5736 
 401   0.0000       2.471115        67.2424 
 402   0.0000       2.471578        67.2551 
 403   0.0000       2.510829        68.3231 
 404   0.0000       2.518665        68.5364 
 405   0.0000       2.525501        68.7224 
 406   0.0000       2.531228        68.8782 
 407   0.0000       2.546289        69.2880 
 408   0.0000       2.550872        69.4128 
 409   0.0000       2.553315        69.4792 
 410   0.0000       2.556493        69.5657 
 411   0.0000       2.597737        70.6880 
 412   0.0000       2.603804        70.8531 
 413   0.0000       2.611043        71.0501 
 414   0.0000       2.619242        71.2732 
 415   0.0000       2.621512        71.3350 
 416   0.0000       2.633009        71.6478 
 417   0.0000       2.636823        71.7516 
 418   0.0000       2.668036        72.6010 
 419   0.0000       2.668433        72.6117 
 420   0.0000       2.678074        72.8741 
 421   0.0000       2.681471        72.9665 
 422   0.0000       2.699934        73.4690 
 423   0.0000       2.700468        73.4835 
 424   0.0000       2.754234        74.9465 
 425   0.0000       2.757596        75.0380 
 426   0.0000       2.776094        75.5413 
 427   0.0000       2.777689        75.5848 
 428   0.0000       2.795569        76.0713 
 429   0.0000       2.806692        76.3740 
 430   0.0000       2.819095        76.7115 
 431   0.0000       2.819566        76.7243 
 432   0.0000       2.849978        77.5518 
 433   0.0000       2.851456        77.5921 
 434   0.0000       2.864397        77.9442 
 435   0.0000       2.864974        77.9599 
 436   0.0000       2.891792        78.6897 
 437   0.0000       2.910469        79.1979 
 438   0.0000       2.911817        79.2346 
 439   0.0000       2.914042        79.2951 
 440   0.0000       2.918398        79.4137 
 441   0.0000       2.924974        79.5926 
 442   0.0000       2.928018        79.6754 
 443   0.0000       2.950660        80.2916 
 444   0.0000       2.966433        80.7207 
 445   0.0000       3.013063        81.9896 
 446   0.0000       3.026977        82.3682 
 447   0.0000       3.045687        82.8774 
 448   0.0000       3.046696        82.9048 
 449   0.0000       3.053257        83.0834 
 450   0.0000       3.054224        83.1097 
 451   0.0000       3.183603        86.6302 
 452   0.0000       3.185166        86.6728 
 453   0.0000       3.328084        90.5618 
 454   0.0000       3.328511        90.5734 
 455   0.0000       3.399105        92.4944 
 456   0.0000       3.427775        93.2745 
 457   0.0000       3.444174        93.7208 
 458   0.0000       3.450711        93.8986 
 459   0.0000       3.475477        94.5725 
 460   0.0000       3.475739        94.5797 
 461   0.0000       3.519336        95.7660 
 462   0.0000       3.519659        95.7748 
 463   0.0000       3.537992        96.2736 
 464   0.0000       3.538155        96.2781 
 465   0.0000       3.569606        97.1339 
 466   0.0000       3.569815        97.1396 
 467   0.0000       3.581312        97.4525 
 468   0.0000       3.582058        97.4728 
 469   0.0000       3.802142       103.4615 
 470   0.0000       3.844898       104.6250 
 471   0.0000       3.861196       105.0685 
 472   0.0000       3.995152       108.7136 
 473   0.0000       4.215680       114.7145 
 474   0.0000       4.542554       123.6092 
 475   0.0000       4.559635       124.0740 
 476   0.0000       4.563089       124.1680 
 477   0.0000       4.590973       124.9267 
 478   0.0000       4.618870       125.6858 
 479   0.0000       4.619230       125.6956 
 480   0.0000       5.198348       141.4542 
 481   0.0000       7.008480       190.7104 
 482   0.0000       7.055260       191.9834 
 483   0.0000       7.058992       192.0849 
 484   0.0000      18.717942       509.3411 
 485   0.0000      18.760891       510.5098 
 486   0.0000      18.998655       516.9797 
 487   0.0000      19.014619       517.4141 
 488   0.0000      19.048651       518.3401 
 489   0.0000      19.054801       518.5075 
 490   0.0000      19.248231       523.7710 
 491   0.0000      19.329343       525.9782 
 492   0.0000      19.777562       538.1748 
 493   0.0000      21.670207       589.6763 
 494   0.0000      21.703662       590.5867 
 495   0.0000      22.111323       601.6797 
 496   0.0000      22.112464       601.7107 
 497   0.0000      22.184911       603.6821 
 498   0.0000      22.185634       603.7018 
[...]
Total number of batches                      ...      235
Average number of points per batch           ...       59
Average number of grid points per atom       ...      437

Memory available               ... 870.2 MB
Memory needed per perturbation ...  23.5 MB
Perturbations treated per batch... 3
Number of batches              ... 1
     CP-SCF ITERATION   0:   4.5413e-02 (   2.9 sec   0/  3 done)
     CP-SCF ITERATION   1:   1.7064e-03 (   3.0 sec   0/  3 done)
     CP-SCF ITERATION   2:   4.3804e-04 (   3.0 sec   3/  3 done)
                    *** THE CP-SCF HAS CONVERGED ***

Forming final perturbed densities           ... done
Transforming perturbed density to AO basis  ... done

 Raw HFC matrix (all values in MHz): 
 -----------------------------------
                -0.3711              -0.0896               0.4524
                -0.0895              -0.5192              -0.2013
                 0.4530              -0.2008               0.7972

 A(FC)          -0.0301              -0.0301              -0.0301
 A(SD)          -0.4884              -0.5345               1.0229
 A(ORB+DIA)      0.0032               0.0029              -0.0087    A(PC) =  -0.0009
 A(ORB)          0.0032               0.0029              -0.0089    A(PC) =  -0.0009
 A(DIA)         -0.0000              -0.0001               0.0002    A(PC) =   0.0000
             ----------           ----------           ----------
 A(Tot)         -0.5154              -0.5617               0.9840    A(iso)=   -0.0310
 Orientation: 
  X          -0.8069078            0.4952125           -0.3219694
  Y           0.4751374            0.8680023            0.1442793
  Z           0.3509191           -0.0365596           -0.9356918

Notes:  (1) The A matrix conforms to the "SAI" spin Hamiltonian convention.
        (2) Tensor is right-handed.

 Raw EFG matrix (all values in a.u.**-3):
 -----------------------------------
             0.0894      -0.0694      -0.1960
            -0.0694      -0.1179       0.0622
            -0.1960       0.0622       0.0285

 V(El)       0.5610       0.4757      -1.0367
 V(Nuc)     -0.6985      -0.6173       1.3159
         ----------   ----------   ----------
 V(Tot)     -0.1375      -0.1416       0.2792 
 Orientation: 
  X      -0.5978256    0.3115178   -0.7386212
  Y      -0.6567682   -0.7186455    0.2284823
  Z      -0.4596305    0.6216955    0.6342197

Note: Tensor is right-handed


 Quadrupole tensor eigenvalues (in MHz;Q= 0.0029 I=  1.0)
  e**2qQ            =     0.187447 MHz 
  e**2qQ/(4I*(2I-1))=     0.046862 MHz 
  eta               =     0.014850
  NOTE: the diagonal representation of the SH term I*Q*I = e**2qQ/(4I(2I-1))*[-(1-eta),-(1+eta),2]

 RHO(0)=      0.437725257 a.u.**-3

 -----------------------------------------------------------
 Nucleus  31H : A:ISTP=    1 I=  0.5 P=533.5514 MHz/au**3
                Q:ISTP=    2 I=  1.0 Q=  0.0029 barn     
 -----------------------------------------------------------
 Solving for nuclear perturbation:
Forming RHS of the CP-SCF equations         ... 
Calc. nucleus orbit integrals (SHARK)       ... done

------------------------------------------------------------------------------
                           ORCA CP-SCF CALCULATION
------------------------------------------------------------------------------

Input orbitals are from        ... input_10.gbw
Input Perturbation             ... input_10.pin.tmp
Wavefunction output            ... input_10.pout.tmp
Perturbation mode              ... Imaginary perturbation
Solver                         ... POPLE
Max. number of iterations      ... 64
Convergence tolerance          ... 1.000e-03
Integral handling              ... Direct
DFT GridXC                     ... 1
COSX GridX                     ... 1
COSX IntAccX                   ... 3.067
COSX Algorithm                 ... Auto
Number of perturbations        ... 3
Number of operators            ... 2
Orbital ranges used for CP-SCF:
 Operator 0:  Orbitals   0...116  to 117...516
 Operator 1:  Orbitals   0...115  to 116...516
Variables per perturbation     ... 93316
DFT calculation                         ... on
XC functional terms                     ... off
Hybrid DFT                              ... on
   Exchange mixing (SCF)                ...  0.200
   Exchange mixing (CP-SCF)             ...  0.200
   GGA exch. scaling(SCF)               ...  0.720
   GGA exch. scaling (CP-SCF)           ...  0.720
   GGA corr. scaling (SCF)              ...  0.810
   GGA corr. scaling (CP-SCF)           ...  0.810

CP-SCF GRID
-----------

General Integration Accuracy     IntAcc      ... 3.467
Radial Grid Type                 RadialGrid  ... OptM3 with GC (2021)
Angular Grid (max. ang.)         AngularGrid ... 1 (Lebedev-50)
Angular grid pruning method      GridPruning ... 4 (adaptive)
Weight generation scheme         WeightScheme... Becke
Basis function cutoff            BFCut       ... 1.0000e-10
Integration weight cutoff        WCut        ... 1.0000e-14
Angular grids for H and He will be reduced by one unit
Partially contracted basis set               ... off
Rotationally invariant grid construction     ... off

Total number of grid points                  ...    31430
Total number of batches                      ...      509
Average number of points per batch           ...       61
Average number of grid points per atom       ...      982

CP-SCF GRIDX
------------

General Integration Accuracy     IntAcc      ... 3.067
Radial Grid Type                 RadialGrid  ... OptM3 with GC (2021)
Angular Grid (max. ang.)         AngularGrid ... 1 (Lebedev-50)
Angular grid pruning method      GridPruning ... 4 (adaptive)
Weight generation scheme         WeightScheme... Becke
Basis function cutoff            BFCut       ... 1.0000e-10
Integration weight cutoff        WCut        ... 1.0000e-14
Angular grids for H and He will be reduced by one unit
Partially contracted basis set               ... on
Rotationally invariant grid construction     ... off

Total number of grid points                  ...    13975
Total number of batches                      ...      235
Average number of points per batch           ...       59
Average number of grid points per atom       ...      437

Memory available               ... 868.7 MB
Memory needed per perturbation ...  23.5 MB
Perturbations treated per batch... 3
Number of batches              ... 1
     CP-SCF ITERATION   0:   4.0442e-02 (   2.9 sec   0/  3 done)
     CP-SCF ITERATION   1:   1.1998e-03 (   2.9 sec   0/  3 done)
     CP-SCF ITERATION   2:   2.5760e-04 (   3.0 sec   3/  3 done)
                    *** THE CP-SCF HAS CONVERGED ***

Forming final perturbed densities           ... done
Transforming perturbed density to AO basis  ... done

 Raw HFC matrix (all values in MHz): 
 -----------------------------------
                -0.2600              -0.0160               0.0912
                -0.0161              -0.2255              -0.1507
                 0.0922              -0.1508               0.4932

 A(FC)           0.0028               0.0028               0.0028
 A(SD)          -0.2599              -0.2761               0.5360
 A(ORB+DIA)      0.0016               0.0019              -0.0044    A(PC) =  -0.0003
 A(ORB)          0.0016               0.0019              -0.0045    A(PC) =  -0.0003
 A(DIA)         -0.0001              -0.0000               0.0001    A(PC) =   0.0000
             ----------           ----------           ----------
 A(Tot)         -0.2555              -0.2713               0.5344    A(iso)=    0.0025
 Orientation: 
  X          -0.1488091           -0.9820651           -0.1157754
  Y          -0.9727696            0.1243416            0.1955975
  Z          -0.1776938            0.1417294           -0.9738263

Notes:  (1) The A matrix conforms to the "SAI" spin Hamiltonian convention.
        (2) Tensor is right-handed.

 Raw EFG matrix (all values in a.u.**-3):
 -----------------------------------
            -0.1412       0.0103      -0.0053
             0.0103       0.0690      -0.2131
            -0.0053      -0.2131       0.0722

 V(El)       0.5470       0.8144      -1.3614
 V(Nuc)     -0.6854      -0.9600       1.6453
         ----------   ----------   ----------
 V(Tot)     -0.1384      -0.1456       0.2840 
 Orientation: 
  X       0.7526263   -0.6579339   -0.0260113
  Y       0.4532351    0.5463131   -0.7043578
  Z       0.4776312    0.5183290    0.7093684

Note: Tensor is right-handed


 Quadrupole tensor eigenvalues (in MHz;Q= 0.0029 I=  1.0)
  e**2qQ            =     0.190680 MHz 
  e**2qQ/(4I*(2I-1))=     0.047670 MHz 
  eta               =     0.025252
  NOTE: the diagonal representation of the SH term I*Q*I = e**2qQ/(4I(2I-1))*[-(1-eta),-(1+eta),2]

 RHO(0)=      0.442705548 a.u.**-3

 -----------------------------------------------------------
 Nucleus   0V : A:ISTP=   51 I=  3.5 P=140.5173 MHz/au**3
                Q:ISTP=   51 I=  3.5 Q= -0.0430 barn     
 -----------------------------------------------------------
 Solving for nuclear perturbation:
Forming RHS of the CP-SCF equations         ... 
Calc. nucleus orbit integrals (SHARK)       ... done

------------------------------------------------------------------------------
                           ORCA CP-SCF CALCULATION
------------------------------------------------------------------------------

Input orbitals are from        ... input_10.gbw
Input Perturbation             ... input_10.pin.tmp
Wavefunction output            ... input_10.pout.tmp
Perturbation mode              ... Imaginary perturbation
Solver                         ... POPLE
Max. number of iterations      ... 64
Convergence tolerance          ... 1.000e-03
Integral handling              ... Direct
DFT GridXC                     ... 1
COSX GridX                     ... 1
COSX IntAccX                   ... 3.067
COSX Algorithm                 ... Auto
Number of perturbations        ... 3
Number of operators            ... 2
Orbital ranges used for CP-SCF:
 Operator 0:  Orbitals   0...116  to 117...516
 Operator 1:  Orbitals   0...115  to 116...516
Variables per perturbation     ... 93316
DFT calculation                         ... on
XC functional terms                     ... off
Hybrid DFT                              ... on
   Exchange mixing (SCF)                ...  0.200
   Exchange mixing (CP-SCF)             ...  0.200
   GGA exch. scaling(SCF)               ...  0.720
   GGA exch. scaling (CP-SCF)           ...  0.720
   GGA corr. scaling (SCF)              ...  0.810
   GGA corr. scaling (CP-SCF)           ...  0.810

CP-SCF GRID
-----------

General Integration Accuracy     IntAcc      ... 3.467
Radial Grid Type                 RadialGrid  ... OptM3 with GC (2021)
Angular Grid (max. ang.)         AngularGrid ... 1 (Lebedev-50)
Angular grid pruning method      GridPruning ... 4 (adaptive)
Weight generation scheme         WeightScheme... Becke
Basis function cutoff            BFCut       ... 1.0000e-10
Integration weight cutoff        WCut        ... 1.0000e-14
Angular grids for H and He will be reduced by one unit
Partially contracted basis set               ... off
Rotationally invariant grid construction     ... off

Total number of grid points                  ...    31430
Total number of batches                      ...      509
Average number of points per batch           ...       61
Average number of grid points per atom       ...      982

CP-SCF GRIDX
------------

General Integration Accuracy     IntAcc      ... 3.067
Radial Grid Type                 RadialGrid  ... OptM3 with GC (2021)
Angular Grid (max. ang.)         AngularGrid ... 1 (Lebedev-50)
Angular grid pruning method      GridPruning ... 4 (adaptive)
Weight generation scheme         WeightScheme... Becke
Basis function cutoff            BFCut       ... 1.0000e-10
Integration weight cutoff        WCut        ... 1.0000e-14
Angular grids for H and He will be reduced by one unit
Partially contracted basis set               ... on
Rotationally invariant grid construction     ... off

Total number of grid points                  ...    13975
Total number of batches                      ...      235
Average number of points per batch           ...       59
Average number of grid points per atom       ...      437

Memory available               ... 867.1 MB
Memory needed per perturbation ...  23.5 MB
Perturbations treated per batch... 3
Number of batches              ... 1
     CP-SCF ITERATION   0:   1.2176e+01 (   3.1 sec   0/  3 done)
     CP-SCF ITERATION   1:   1.8811e+00 (   2.9 sec   0/  3 done)
     CP-SCF ITERATION   2:   3.2571e-01 (   2.9 sec   0/  3 done)
     CP-SCF ITERATION   3:   4.0685e-02 (   2.9 sec   0/  3 done)
     CP-SCF ITERATION   4:   8.2218e-03 (   3.0 sec   0/  3 done)
     CP-SCF ITERATION   5:   2.0353e-03 (   3.0 sec   0/  3 done)
     CP-SCF ITERATION   6:   3.2450e-04 (   3.0 sec   3/  3 done)
                    *** THE CP-SCF HAS CONVERGED ***

Forming final perturbed densities           ... done
Transforming perturbed density to AO basis  ... done

 Raw HFC matrix (all values in MHz): 
 -----------------------------------
              -337.8380              35.2083             -88.9084
                35.2632             -75.7377               8.9124
               -88.9804               8.8937            -114.5471

 A(FC)        -164.9305            -164.9305            -164.9305
 A(SD)         100.9225              88.3846            -189.3071
 A(ORB+DIA)     -6.5326              -7.6962             -19.1026    A(PC) = -11.1105
 A(ORB)         -6.5322              -7.6967             -19.1025    A(PC) = -11.1105
 A(DIA)         -0.0004               0.0005              -0.0001    A(PC) =  -0.0000
             ----------           ----------           ----------
 A(Tot)        -70.5406             -84.2421            -373.3402    A(iso)= -176.0409
 Orientation: 
  X           0.1884492           -0.2924272            0.9375357
  Y           0.9645598            0.2346431           -0.1206935
  Z          -0.1846922            0.9270539            0.3262818

Notes:  (1) The A matrix conforms to the "SAI" spin Hamiltonian convention.
        (2) Tensor is right-handed.

 Raw EFG matrix (all values in a.u.**-3):
 -----------------------------------
             0.2283      -0.0703       0.1597
            -0.0703      -0.0885      -0.0526
             0.1597      -0.0526      -0.1398

 V(El)       0.1312      -0.4710       0.3399
 V(Nuc)     -0.2318       0.2657      -0.0339
         ----------   ----------   ----------
 V(Tot)     -0.1006      -0.2054       0.3060 
 Orientation: 
  X      -0.2758487    0.3022792    0.9124335
  Y      -0.9493774   -0.2341153   -0.2094578
  Z       0.1502999   -0.9240224    0.3515574

Note: Tensor is right-handed


 Quadrupole tensor eigenvalues (in MHz;Q=-0.0430 I=  3.5)
  e**2qQ            =    -3.091334 MHz 
  e**2qQ/(4I*(2I-1))=    -0.036802 MHz 
  eta               =     0.342368
  NOTE: the diagonal representation of the SH term I*Q*I = e**2qQ/(4I(2I-1))*[-(1-eta),-(1+eta),2]

 RHO(0)=   8115.215157816 a.u.**-3


--------------------------------------------------------------------------------
----------------------------------------------------------------------------
                           ORCA EULER ANGLE PROGRAM
----------------------------------------------------------------------------

Only g-tensor available        -->  using g-tensor as reference tensor

Reference tensor               ...  g

g-tensor ordering              ...  |g_min> --> |gx>
                                    |g_mid> --> |gy>
                                    |g_max> --> |gz>

A- and EFG-tensor ordering     ...  the axes |Ax>, |Qx>, |Ay>, etc. are assigned
                                    such that the Euler rotation is minimal. You
                                    can find the respective eigenvalues as Ax,
                                    EFGx, Ay, etc. in the tables below.
                                    The relation of |Ax>, |Ay>,  etc. to Amin, Amid, etc.
                                    (as printed in the ORCA EPR/NMR CALCULATION Output)
                                    is obtained in the detailed printout.

Euler rotation around          ...  z - y - z
   First rotation              -->  by alpha around z
   Second rotation             -->  by beta around y'
   Third rotation              -->  by gamma around z''
   Positive / Negative angle   -->  clockwise / counterclockwise rotation

Plot EFG-tensors                    (-)
Plot HFC-tensors                    (-)
Detailed Printout                   (-)

-------------------------------------------------------------------------
          Euler rotation of hyperfine tensor to g-tensor
-------------------------------------------------------------------------

-------------------------------------------------------------------
 Atom  |   Alpha    Beta    Gamma   |   Ax       Ay       Az 
       |          [degrees]         |           [MHz]         
-------------------------------------------------------------------
 19H     -150.4     30.4   -166.1      -0.47     0.83    -0.49
 20H      -50.0     24.2     74.8      -0.27     0.46    -0.26
 21H      101.6      0.5    -68.9      -0.12     0.46    -0.13
 22H        2.0     19.5     16.7      -0.22     0.45    -0.22
 23H      106.7     20.8    -79.2      -0.27     0.53    -0.26
 24H       43.8     20.6     -1.8      -0.52     0.98    -0.56
 26H       53.4     22.1    -78.8      -0.27     0.47    -0.26
 27H      150.8     29.4    165.8      -0.47     0.83    -0.50
 28H       -6.6     14.6    -12.7      -0.22     0.45    -0.22
 29H      -53.9      1.6     20.7      -0.12     0.47    -0.12
 30H      -48.6     20.0      6.0      -0.52     0.98    -0.56
 31H     -106.6     21.7     78.3      -0.27     0.53    -0.26
  0V     -122.4      1.0    122.0    -373.34   -84.24   -70.54
-------------------------------------------------------------------


-------------------------------------------------------------------------------
    Euler rotation of Electric Field Gradient (EFG) tensor to g-tensor
-------------------------------------------------------------------------------

-------------------------------------------------------------------
 Atom  |   Alpha    Beta    Gamma  |   EFGx     EFGy     EFGz
       |          [degrees]        |         [a.u.**-3]       
-------------------------------------------------------------------
 19H      174.2     36.0    147.1     -0.14     0.28    -0.14
 20H       35.6     41.9    -69.2     -0.14    -0.15     0.28
 21H       21.2      2.0    -40.4      0.28    -0.14    -0.14
 22H       20.1      4.8    -55.6     -0.15     0.28    -0.14
 23H     -147.9     35.7    120.3     -0.14    -0.15     0.28
 24H      177.2     41.9    151.3     -0.14     0.28    -0.14
 26H      -36.8     42.9     69.7     -0.14    -0.15     0.28
 27H     -171.9     35.9   -149.3     -0.14     0.28    -0.14
 28H      -30.3      5.7     65.4     -0.15     0.28    -0.14
 29H      -46.5      2.7     65.2      0.28    -0.14    -0.14
 30H     -175.4     41.5   -153.0     -0.14     0.28    -0.14
 31H      149.4     35.0   -122.0     -0.14    -0.15     0.28
  0V      -10.5      5.0     10.6      0.31    -0.21    -0.10
-------------------------------------------------------------------


Maximum memory used throughout the entire EPRNMR-calculation: 221.4 MB

Timings for individual modules:

Sum of individual times         ...     1644.357 sec (=  27.406 min)
GTO integral calculation        ...        1.359 sec (=   0.023 min)   0.1 %
Spin-Orbit-Coupling Matrices    ...        6.854 sec (=   0.114 min)   0.4 %
SCF iterations                  ...      111.699 sec (=   1.862 min)   6.8 %
EPR/NMR calculation             ...     1524.445 sec (=  25.407 min)  92.7 %
                             ****ORCA TERMINATED NORMALLY****
TOTAL RUN TIME: 0 days 0 hours 27 minutes 25 seconds 555 msec
